<UPF version="2.0.1">
  <PP_INFO>
    Generated using "atomic" code by A. Dal Corso  v.5.0.2 svn rev. 10565
    Author: TM
    Generation date: 31Oct2014
    Pseudopotential type: NC
    Element: At
    Functional: PBE

    Suggested minimum cutoff for wavefunctions:   0. Ry
    Suggested minimum cutoff for charge density:   0. Ry
    The Pseudo was generated with a Scalar-Relativistic Calculation
    L component and cutoff radius for Local Potential:  3   3.0000

    Valence configuration: 
    nl pn  l   occ       Rcut    Rcut US       E pseu
    6S  1  0  2.00      3.000      3.000    -1.423961
    6P  2  1  5.00      3.000      3.000    -0.490007
    Generation configuration:
    6S  1  0  2.00      3.000      3.000    -1.423961
    6P  2  1  5.00      3.000      3.000    -0.490006
    6D  3  2  0.00      3.000      3.000     0.100000
    5F  4  3  0.00      3.000      3.000     0.100000

    Pseudization used: troullier-martins
  </PP_INFO>
  <!--                               -->
  <!-- END OF HUMAN READABLE SECTION -->
  <!--                               -->
  <PP_HEADER generated='Generated using "atomic" code by A. Dal Corso  v.5.0.2 svn rev. 10565'
             author="TM"
             date="31Oct2014"
             comment=""
             element="At"
             pseudo_type="NC"
             relativistic="scalar"
             is_ultrasoft="F"
             is_paw="F"
             is_coulomb="F"
             has_so="F"
             has_wfc="F"
             has_gipaw="F"
             paw_as_gipaw="F"
             core_correction="T"
             functional="PBE"
             z_valence="7.000000000000000E+000"
             total_psenergy="-3.332153071669417E+001"
             wfc_cutoff="0.000000000000000E+000"
             rho_cutoff="0.000000000000000E+000"
             l_max="3"
             l_max_rho="6"
             l_local="3"
             mesh_size="1285"
             number_of_wfc="2"
             number_of_proj="3"/>
  <PP_MESH dx="1.250000000000000E-002" mesh="1285" xmin="-7.000000000000000E+000" rmax="1.000000000000000E+002"
zmesh="8.500000000000000E+001">
    <PP_R type="real" size="1285" columns="4">
 1.072802312417078E-005  1.086296504316497E-005  1.099960432254803E-005  1.113796231248534E-005 
 1.127806063169435E-005  1.141992117082246E-005  1.156356609586751E-005  1.170901785164131E-005 
 1.185629916527659E-005  1.200543304977829E-005  1.215644280761926E-005  1.230935203438139E-005 
 1.246418462244247E-005  1.262096476470937E-005  1.277971695839833E-005  1.294046600886257E-005 
 1.310323703346827E-005  1.326805546551920E-005  1.343494705823068E-005  1.360393788875362E-005 
 1.377505436224911E-005  1.394832321601427E-005  1.412377152366001E-005  1.430142669934135E-005 
 1.448131650204095E-005  1.466346903990646E-005  1.484791277464252E-005  1.503467652595793E-005 
 1.522378947606880E-005  1.541528117425835E-005  1.560918154149402E-005  1.580552087510267E-005 
 1.600432985350463E-005  1.620563954100726E-005  1.640948139265881E-005  1.661588725916331E-005 
 1.682488939185735E-005  1.703652044774936E-005  1.725081349462239E-005  1.746780201620102E-005 
 1.768751991738321E-005  1.791000152953802E-005  1.813528161587000E-005  1.836339537685097E-005 
 1.859437845572020E-005  1.882826694405370E-005  1.906509738740361E-005  1.930490679100854E-005 
 1.954773262557569E-005  1.979361283313578E-005  2.004258583297146E-005  2.029469052762050E-005 
 2.054996630895435E-005  2.080845306433318E-005  2.107019118283847E-005  2.133522156158371E-005 
 2.160358561210479E-005  2.187532526683060E-005  2.215048298563503E-005  2.242910176247149E-005 
 2.271122513209070E-005  2.299689717684314E-005  2.328616253356702E-005  2.357906640056281E-005 
 2.387565454465569E-005  2.417597330834658E-005  2.448006961705328E-005  2.478799098644276E-005 
 2.509978552985539E-005  2.541550196582299E-005  2.573518962568100E-005  2.605889846127667E-005 
 2.638667905277416E-005  2.671858261655773E-005  2.705466101323454E-005  2.739496675573781E-005 
 2.773955301753215E-005  2.808847364092204E-005  2.844178314546475E-005  2.879953673648921E-005 
 2.916179031372187E-005  2.952860048002116E-005  2.990002455022186E-005  3.027612056009059E-005 
 3.065694727539410E-005  3.104256420108143E-005  3.143303159058177E-005  3.182841045521914E-005 
 3.222876257374551E-005  3.263415050199398E-005  3.304463758265309E-005  3.346028795516433E-005 
 3.388116656574404E-005  3.430733917753139E-005  3.473887238086408E-005  3.517583360368306E-005 
 3.561829112206842E-005  3.606631407090756E-005  3.651997245469775E-005  3.697933715848447E-005 
 3.744447995893725E-005  3.791547353556501E-005  3.839239148207233E-005  3.887530831785861E-005 
 3.936429949966202E-005  3.985944143334955E-005  4.036081148585570E-005  4.086848799727122E-005 
 4.138255029308386E-005  4.190307869657329E-005  4.243015454136154E-005  4.296386018412169E-005 
 4.350427901744626E-005  4.405149548287741E-005  4.460559508410127E-005  4.516666440030781E-005 
 4.573479109971918E-005  4.631006395328804E-005  4.689257284856813E-005  4.748240880375951E-005 
 4.807966398193019E-005  4.868443170541690E-005  4.929680647040682E-005  4.991688396170283E-005 
 5.054476106767458E-005  5.118053589539729E-005  5.182430778598125E-005  5.247617733009413E-005 
 5.313624638367842E-005  5.380461808386674E-005  5.448139686509701E-005  5.516668847543072E-005 
 5.586059999307621E-005  5.656323984311983E-005  5.727471781446780E-005  5.799514507700061E-005 
 5.872463419894373E-005  5.946329916445664E-005  6.021125539144296E-005  6.096861974958499E-005 
 6.173551057860452E-005  6.251204770675383E-005  6.329835246953906E-005  6.409454772867912E-005 
 6.490075789130319E-005  6.571710892938940E-005  6.654372839944833E-005  6.738074546245394E-005 
 6.822829090402519E-005  6.908649715486179E-005  6.995549831143640E-005  7.083543015694775E-005 
 7.172643018253692E-005  7.262863760877060E-005  7.354219340739484E-005  7.446724032336173E-005 
 7.540392289713391E-005  7.635238748726926E-005  7.731278229328956E-005  7.828525737883733E-005 
 7.926996469512314E-005  8.026705810466856E-005  8.127669340534744E-005  8.229902835472954E-005 
 8.333422269473089E-005  8.438243817657293E-005  8.544383858605754E-005  8.651858976915807E-005 
 8.760685965793339E-005  8.870881829676796E-005  8.982463786894073E-005  9.095449272353024E-005 
 9.209855940265615E-005  9.325701666906464E-005  9.443004553406072E-005  9.561782928579072E-005 
 9.682055351788270E-005  9.803840615844481E-005  9.927157749942977E-005  1.005202602263688E-004 
 1.017846494484780E-004  1.030649427291462E-004  1.043613401168030E-004  1.056740441761778E-004 
 1.070032600199509E-004  1.083491953408017E-004  1.097120604438627E-004  1.110920682795790E-004 
 1.124894344769824E-004  1.139043773773846E-004  1.153371180684921E-004  1.167878804189531E-004 
 1.182568911133363E-004  1.197443796875514E-004  1.212505785647147E-004  1.227757230914648E-004 
 1.243200515747371E-004  1.258838053189991E-004  1.274672286639547E-004  1.290705690227234E-004 
 1.306940769204977E-004  1.323380060336902E-004  1.340026132295692E-004  1.356881586063956E-004 
 1.373949055340641E-004  1.391231206952543E-004  1.408730741271014E-004  1.426450392633894E-004 
 1.444392929772757E-004  1.462561156245540E-004  1.480957910874588E-004  1.499586068190243E-004 
 1.518448538879985E-004  1.537548270243233E-004  1.556888246651875E-004  1.576471490016568E-004 
 1.596301060258933E-004  1.616380055789664E-004  1.636711613992661E-004  1.657298911715263E-004 
 1.678145165764618E-004  1.699253633410339E-004  1.720627612893438E-004  1.742270443941694E-004 
 1.764185508291496E-004  1.786376230216229E-004  1.808846077061345E-004  1.831598559786128E-004 
 1.854637233512293E-004  1.877965698079485E-004  1.901587598607750E-004  1.925506626067109E-004 
 1.949726517854265E-004  1.974251058376583E-004  1.999084079643422E-004  2.024229461864869E-004 
 2.049691134058061E-004  2.075473074661078E-004  2.101579312154592E-004  2.128013925691331E-004 
 2.154781045733433E-004  2.181884854697869E-004  2.209329587609931E-004  2.237119532764971E-004 
 2.265259032398462E-004  2.293752483364470E-004  2.322604337822680E-004  2.351819103934051E-004 
 2.381401346565223E-004  2.411355688001795E-004  2.441686808670558E-004  2.472399447870827E-004 
 2.503498404514962E-004  2.534988537878208E-004  2.566874768357973E-004  2.599162078242640E-004 
 2.631855512490071E-004  2.664960179515879E-004  2.698481251991639E-004  2.732423967653126E-004 
 2.766793630118719E-004  2.801595609718103E-004  2.836835344331397E-004  2.872518340238828E-004 
 2.908650172981105E-004  2.945236488230606E-004  2.982283002673523E-004  3.019795504903110E-004 
 3.057779856324158E-004  3.096241992068861E-004  3.135187921924174E-004  3.174623731270881E-004 
 3.214555582034420E-004  3.254989713647715E-004  3.295932444026097E-004  3.337390170554483E-004 
 3.379369371086992E-004  3.421876604959115E-004  3.464918514012622E-004  3.508501823633377E-004 
 3.552633343802177E-004  3.597319970158835E-004  3.642568685079634E-004  3.688386558768340E-004 
 3.734780750360936E-004  3.781758509044243E-004  3.829327175188639E-004  3.877494181494984E-004 
 3.926267054156009E-004  3.975653414032301E-004  4.025660977843062E-004  4.076297559371886E-004 
 4.127571070687652E-004  4.179489523380819E-004  4.232061029815255E-004  4.285293804395792E-004 
 4.339196164851767E-004  4.393776533536661E-004  4.449043438744128E-004  4.505005516040549E-004 
 4.561671509614354E-004  4.619050273642331E-004  4.677150773673096E-004  4.735982088027982E-004 
 4.795553409219556E-004  4.855874045387947E-004  4.916953421755285E-004  4.978801082098390E-004 
 5.041426690240022E-004  5.104840031558868E-004  5.169051014518520E-004  5.234069672215709E-004 
 5.299906163947979E-004  5.366570776801107E-004  5.434073927256485E-004  5.502426162818703E-004 
 5.571638163663639E-004  5.641720744307232E-004  5.712684855295291E-004  5.784541584914540E-004 
 5.857302160925169E-004  5.930977952315221E-004  6.005580471076990E-004  6.081121374005813E-004 
 6.157612464521456E-004  6.235065694512447E-004  6.313493166203545E-004  6.392907134046764E-004 
 6.473320006636148E-004  6.554744348646635E-004  6.637192882797335E-004  6.720678491839447E-004 
 6.805214220569234E-004  6.890813277866301E-004  6.977489038757496E-004  7.065255046506817E-004 
 7.154125014731526E-004  7.244112829544969E-004  7.335232551726289E-004  7.427498418917456E-004 
 7.520924847847950E-004  7.615526436587359E-004  7.711317966826396E-004  7.808314406186546E-004 
 7.906530910558795E-004  8.005982826471788E-004  8.106685693489716E-004  8.208655246640432E-004 
 8.311907418874073E-004  8.416458343552613E-004  8.522324356970759E-004  8.629522000908487E-004 
 8.738068025215753E-004  8.847979390429698E-004  8.959273270424744E-004  9.071967055096084E-004 
 9.186078353076843E-004  9.301624994489492E-004  9.418625033731833E-004  9.537096752298028E-004 
 9.657058661635153E-004  9.778529506035596E-004  9.901528265565929E-004  1.002607415903257E-003 
 1.015218664698476E-003  1.027988543475534E-003  1.040919047553968E-003  1.054012197351349E-003 
 1.067270038698971E-003  1.080694643161516E-003  1.094288108360747E-003  1.108052558303255E-003 
 1.121990143712349E-003  1.136103042364104E-003  1.150393459427648E-003  1.164863627809721E-003 
 1.179515808503573E-003  1.194352290942248E-003  1.209375393356311E-003  1.224587463136078E-003 
 1.239990877198404E-003  1.255588042358073E-003  1.271381395703874E-003  1.287373404979400E-003 
 1.303566568968635E-003  1.319963417886397E-003  1.336566513773691E-003  1.353378450898028E-003 
 1.370401856158788E-003  1.387639389497677E-003  1.405093744314348E-003  1.422767647887255E-003 
 1.440663861799788E-003  1.458785182371780E-003  1.477134441096439E-003  1.495714505082772E-003 
 1.514528277503579E-003  1.533578698049079E-003  1.552868743386239E-003  1.572401427623888E-003 
 1.592179802783679E-003  1.612206959276970E-003  1.632486026387709E-003  1.653020172761390E-003 
 1.673812606900161E-003  1.694866577664156E-003  1.716185374779146E-003  1.737772329350551E-003 
 1.759630814383943E-003  1.781764245312079E-003  1.804176080528570E-003  1.826869821928271E-003 
 1.849849015454443E-003  1.873117251652828E-003  1.896678166232669E-003  1.920535440634805E-003 
 1.944692802606901E-003  1.969154026785912E-003  1.993922935287885E-003  2.019003398305163E-003 
 2.044399334711119E-003  2.070114712672488E-003  2.096153550269394E-003  2.122519916123187E-003 
 2.149217930032174E-003  2.176251763615344E-003  2.203625640964200E-003  2.231343839302769E-003 
 2.259410689655932E-003  2.287830577526161E-003  2.316607943578754E-003  2.345747284335708E-003 
 2.375253152878300E-003  2.405130159558519E-003  2.435382972719444E-003  2.466016319424680E-003 
 2.497034986196978E-003  2.528443819766125E-003  2.560247727826270E-003  2.592451679802753E-003 
 2.625060707628586E-003  2.658079906530716E-003  2.691514435826147E-003  2.725369519728105E-003 
 2.759650448162327E-003  2.794362577593625E-003  2.829511331862849E-003  2.865102203034362E-003 
 2.901140752254195E-003  2.937632610618985E-003  2.974583480055841E-003  3.011999134213295E-003 
 3.049885419363431E-003  3.088248255315381E-003  3.127093636340315E-003  3.166427632108045E-003 
 3.206256388635443E-003  3.246586129246744E-003  3.287423155545970E-003  3.328773848401565E-003 
 3.370644668943413E-003  3.413042159572416E-003  3.455972944982740E-003  3.499443733196950E-003 
 3.543461316614145E-003  3.588032573071286E-003  3.633164466917881E-003  3.678864050104163E-003 
 3.725138463282981E-003  3.771994936925540E-003  3.819440792451174E-003  3.867483443371343E-003 
 3.916130396447996E-003  3.965389252866523E-003  4.015267709423458E-003  4.065773559729112E-003 
 4.116914695425358E-003  4.168699107418693E-003  4.221134887128845E-003  4.274230227753076E-003 
 4.327993425546381E-003  4.382432881117801E-003  4.437557100743024E-003  4.493374697693519E-003 
 4.549894393582370E-003  4.607125019727047E-003  4.665075518529329E-003  4.723754944872550E-003 
 4.783172467536463E-003  4.843337370629868E-003  4.904259055041276E-003  4.965947039907830E-003 
 5.028410964102668E-003  5.091660587741030E-003  5.155705793705289E-003  5.220556589189175E-003 
 5.286223107261431E-003  5.352715608449102E-003  5.420044482340777E-003  5.488220249209984E-003 
 5.557253561658996E-003  5.627155206283343E-003  5.697936105357207E-003  5.769607318540075E-003 
 5.842180044604822E-003  5.915665623187540E-003  5.990075536559404E-003  6.065421411420756E-003 
 6.141715020717840E-003  6.218968285482326E-003  6.297193276694003E-003  6.376402217166908E-003 
 6.456607483459137E-003  6.537821607806726E-003  6.620057280081837E-003  6.703327349775565E-003 
 6.787644828005726E-003  6.873022889549836E-003  6.959474874903711E-003  7.047014292365950E-003 
 7.135654820148629E-003  7.225410308514564E-003  7.316294781941416E-003  7.408322441313063E-003 
 7.501507666138515E-003  7.595865016798730E-003  7.691409236821734E-003  7.788155255186285E-003 
 7.886118188654584E-003  7.985313344134291E-003  8.085756221070262E-003  8.187462513866378E-003 
 8.290448114337807E-003  8.394729114194152E-003  8.500321807553796E-003  8.607242693489904E-003 
 8.715508478608447E-003  8.825136079658612E-003  8.936142626176105E-003  9.048545463159660E-003 
 9.162362153781235E-003  9.277610482130315E-003  9.394308455992675E-003  9.512474309664152E-003 
 9.632126506799794E-003  9.753283743298828E-003  9.875964950225970E-003  1.000018929676939E-002 
 1.012597619323598E-002  1.025334529408422E-002  1.038231650099524E-002  1.051290996598254E-002 
 1.064514609454070E-002  1.077904554883386E-002  1.091462925092416E-002  1.105191838604089E-002 
 1.119093440589075E-002  1.133169903200967E-002  1.147423425915686E-002  1.161856235875155E-002 
 1.176470588235294E-002  1.191268766518394E-002  1.206253082969917E-002  1.221425878919795E-002 
 1.236789525148264E-002  1.252346422256305E-002  1.268099001040743E-002  1.284049722874061E-002 
 1.300201080088998E-002  1.316555596367978E-002  1.333115827137443E-002  1.349884359967144E-002 
 1.366863814974451E-002  1.384056845233754E-002  1.401466137191011E-002  1.419094411083507E-002 
 1.436944421364906E-002  1.455018957135630E-002  1.473320842578665E-002  1.491852937400848E-002 
 1.510618137279696E-002  1.529619374315872E-002  1.548859617491320E-002  1.568341873133181E-002 
 1.588069185383534E-002  1.608044636675054E-002  1.628271348212649E-002  1.648752480461146E-002 
 1.669491233639127E-002  1.690490848218971E-002  1.711754605433178E-002  1.733285827787077E-002 
 1.755087879577966E-002  1.777164167420792E-002  1.799518140780447E-002  1.822153292510745E-002 
 1.845073159400199E-002  1.868281322724640E-002  1.891781408806804E-002  1.915577089582954E-002 
 1.939672083176621E-002  1.964070154479580E-002  1.988775115740108E-002  2.013790827158665E-002 
 2.039121197491054E-002  2.064770184659175E-002  2.090741796369457E-002  2.117040090739070E-002 
 2.143669176930012E-002  2.170633215791178E-002  2.197936420508497E-002  2.225583057263259E-002 
 2.253577445898702E-002  2.281923960595006E-002  2.310627030552763E-002  2.339691140685049E-002 
 2.369120832318208E-002  2.398920703901430E-002  2.429095411725279E-002  2.459649670649244E-002 
 2.490588254838441E-002  2.521915998509600E-002  2.553637796686404E-002  2.585758605964357E-002 
 2.618283445285258E-002  2.651217396721422E-002  2.684565606269769E-002  2.718333284655888E-002 
 2.752525708148226E-002  2.787148219382519E-002  2.822206228196586E-002  2.857705212475634E-002 
 2.893650719008177E-002  2.930048364352744E-002  2.966903835715470E-002  3.004222891838737E-002 
 3.042011363900996E-002  3.080275156427885E-002  3.119020248214833E-002  3.158252693261261E-002 
 3.197978621716523E-002  3.238204240837773E-002  3.278935835959825E-002  3.320179771477293E-002 
 3.361942491839019E-002  3.404230522555013E-002  3.447050471216123E-002  3.490409028526434E-002 
 3.534312969348744E-002  3.578769153763136E-002  3.623784528138860E-002  3.669366126219759E-002 
 3.715521070223258E-002  3.762256571953264E-002  3.809579933927015E-002  3.857498550516086E-002 
 3.906019909101825E-002  3.955151591245212E-002  4.004901273871550E-002  4.055276730469973E-002 
 4.106285832308049E-002  4.157936549661733E-002  4.210236953060683E-002  4.263195214549342E-002 
 4.316819608963820E-002  4.371118515224828E-002  4.426100417646958E-002  4.481773907264309E-002 
 4.538147683172909E-002  4.595230553889947E-002  4.653031438730091E-002  4.711559369199211E-002 
 4.770823490405501E-002  4.830833062488483E-002  4.891597462065895E-002  4.953126183698776E-002 
 5.015428841375085E-002  5.078515170011817E-002  5.142395026976184E-002  5.207078393625809E-002 
 5.272575376868311E-002  5.338896210740597E-002  5.406051258007871E-002  5.474051011782904E-002 
 5.542906097165582E-002  5.612627272903062E-002  5.683225433070922E-002  5.754711608775302E-002 
 5.827096969876604E-002  5.900392826734779E-002  5.974610631976567E-002  6.049761982285048E-002 
 6.125858620211589E-002  6.202912436010694E-002  6.280935469497859E-002  6.359939911930784E-002 
 6.439938107914359E-002  6.520942557329440E-002  6.602965917286065E-002  6.686021004101116E-002 
 6.770120795300860E-002  6.855278431648799E-002  6.941507219198845E-002  7.028820631374497E-002 
 7.117232311074059E-002  7.206756072802337E-002  7.297405904829260E-002  7.389195971375490E-002 
 7.482140614825682E-002  7.576254357969486E-002  7.671551906270721E-002  7.768048150165217E-002 
 7.865758167387379E-002  7.964697225326203E-002  8.064880783410804E-002  8.166324495525924E-002 
 8.269044212458002E-002  8.373055984371761E-002  8.478376063318194E-002  8.585020905773925E-002 
 8.693007175212530E-002  8.802351744708337E-002  8.913071699572764E-002  9.025184340024033E-002 
 9.138707183890327E-002  9.253657969346932E-002  9.370054657687976E-002  9.487915436132795E-002 
 9.607258720667819E-002  9.728103158924087E-002  9.850467633090899E-002  9.974371262866331E-002 
 1.009983340844458E-001  1.022687367354118E-001  1.035551190845602E-001  1.048576821317499E-001 
 1.061766294051074E-001  1.075121669928274E-001  1.088645035753752E-001  1.102338504580934E-001 
 1.116204216042180E-001  1.130244336683119E-001  1.144461060301163E-001  1.158856608288304E-001 
 1.173433229978203E-001  1.188193202997653E-001  1.203138833622472E-001  1.218272457137846E-001 
 1.233596438203244E-001  1.249113171221884E-001  1.264825080714865E-001  1.280734621700018E-001 
 1.296844280075483E-001  1.313156573008160E-001  1.329674049327010E-001  1.346399289921308E-001 
 1.363334908143930E-001  1.380483550219672E-001  1.397847895658752E-001  1.415430657675475E-001 
 1.433234583612173E-001  1.451262455368502E-001  1.469517089836096E-001  1.488001339338732E-001 
 1.506718092078005E-001  1.525670272584604E-001  1.544860842175298E-001  1.564292799415622E-001 
 1.583969180588436E-001  1.603893060168325E-001  1.624067551302011E-001  1.644495806294782E-001 
 1.665181017103036E-001  1.686126415833053E-001  1.707335275245991E-001  1.728810909269287E-001 
 1.750556673514453E-001  1.772575965801387E-001  1.794872226689315E-001  1.817448940014356E-001 
 1.840309633433903E-001  1.863457878977816E-001  1.886897293606550E-001  1.910631539776336E-001 
 1.934664326011419E-001  1.958999407483547E-001  1.983640586598712E-001  2.008591713591278E-001 
 2.033856687125608E-001  2.059439454905211E-001  2.085344014289605E-001  2.111574412918901E-001 
 2.138134749346243E-001  2.165029173678244E-001  2.192261888223414E-001  2.219837148148810E-001 
 2.247759262144902E-001  2.276032593098802E-001  2.304661558776002E-001  2.333650632510627E-001 
 2.363004343904432E-001  2.392727279534544E-001  2.422824083670122E-001  2.453299458998051E-001 
 2.484158167357721E-001  2.515405030485099E-001  2.547044930766126E-001  2.579082811999585E-001 
 2.611523680169607E-001  2.644372604227838E-001  2.677634716885497E-001  2.711315215415365E-001 
 2.745419362463850E-001  2.779952486873323E-001  2.814919984514724E-001  2.850327319130703E-001 
 2.886180023189338E-001  2.922483698748570E-001  2.959244018331576E-001  2.996466725813070E-001 
 3.034157637316831E-001  3.072322642124470E-001  3.110967703595624E-001  3.150098860099783E-001 
 3.189722225959754E-001  3.229843992407070E-001  3.270470428549375E-001  3.311607882349960E-001 
 3.353262781619685E-001  3.395441635021298E-001  3.438151033086464E-001  3.481397649245527E-001 
 3.525188240870238E-001  3.569529650329643E-001  3.614428806059169E-001  3.659892723643254E-001 
 3.705928506911526E-001  3.752543349048765E-001  3.799744533718908E-001  3.847539436203079E-001 
 3.895935524552037E-001  3.944940360753055E-001  3.994561601911477E-001  4.044807001447203E-001 
 4.095684410306124E-001  4.147201778186887E-001  4.199367154783048E-001  4.252188691040816E-001 
 4.305674640432710E-001  4.359833360247129E-001  4.414673312894234E-001  4.470203067228212E-001 
 4.526431299886134E-001  4.583366796643767E-001  4.641018453788300E-001  4.699395279508463E-001 
 4.758506395302051E-001  4.818361037401153E-001  4.878968558215390E-001  4.940338427793178E-001 
 5.002480235301504E-001  5.065403690524231E-001  5.129118625379236E-001  5.193634995454740E-001 
 5.258962881564807E-001  5.325112491324561E-001  5.392094160745119E-001  5.459918355848585E-001 
 5.528595674303453E-001  5.598136847080436E-001  5.668552740129272E-001  5.739854356076525E-001 
 5.812052835944728E-001  5.885159460893272E-001  5.959185653981020E-001  6.034142981951259E-001 
 6.110043157038999E-001  6.186898038800994E-001  6.264719635968905E-001  6.343520108325597E-001 
 6.423311768605204E-001  6.504107084416998E-001  6.585918680193430E-001  6.668759339162809E-001 
 6.752642005346616E-001  6.837579785582116E-001  6.923585951570289E-001  7.010673941949528E-001 
 7.098857364395537E-001  7.188149997747456E-001  7.278565794160927E-001  7.370118881288108E-001 
 7.462823564485099E-001  7.556694329047289E-001  7.651745842472589E-001  7.747992956753377E-001 
 7.845450710697084E-001  7.944134332276017E-001  8.044059241006850E-001  8.145241050359840E-001 
 8.247695570198571E-001  8.351438809250228E-001  8.456486977606950E-001  8.562856489258793E-001 
 8.670563964658334E-001  8.779626233317754E-001  8.890060336438433E-001  9.001883529573634E-001 
 9.115113285324820E-001  9.229767296071665E-001  9.345863476736628E-001  9.463419967584155E-001 
 9.582455137055076E-001  9.702987584636837E-001  9.825036143769562E-001  9.948619884788942E-001 
 1.007375811790596E+000  1.020047039622411E+000  1.032877651879470E+000  1.045869653371039E+000 
 1.059025074123786E+000  1.072345969698970E+000  1.085834421513622E+000  1.099492537165785E+000 
 1.113322450763814E+000  1.127326323259846E+000  1.141506342787452E+000  1.155864725003530E+000 
 1.170403713434517E+000  1.185125579826931E+000  1.200032624502349E+000  1.215127176716833E+000 
 1.230411595024873E+000  1.245888267647930E+000  1.261559612847583E+000  1.277428079303407E+000 
 1.293496146495572E+000  1.309766325092263E+000  1.326241157341992E+000  1.342923217470812E+000 
 1.359815112084561E+000  1.376919480576140E+000  1.394238995537922E+000  1.411776363179360E+000 
 1.429534323749823E+000  1.447515651966783E+000  1.465723157449358E+000  1.484159685157320E+000 
 1.502828115835636E+000  1.521731366464576E+000  1.540872390715513E+000  1.560254179412431E+000 
 1.579879760999241E+000  1.599752202013001E+000  1.619874607563044E+000  1.640250121816178E+000 
 1.660881928487965E+000  1.681773251340165E+000  1.702927354684484E+000  1.724347543892602E+000 
 1.746037165912666E+000  1.767999609792247E+000  1.790238307207878E+000  1.812756733001281E+000 
 1.835558405722295E+000  1.858646888178676E+000  1.882025787992784E+000  1.905698758165275E+000 
 1.929669497645906E+000  1.953941751911484E+000  1.978519313551123E+000  2.003406022858837E+000 
 2.028605768433581E+000  2.054122487786876E+000  2.079960167958029E+000  2.106122846137137E+000 
 2.132614610295898E+000  2.159439599826353E+000  2.186602006187698E+000  2.214106073561182E+000 
 2.241956099513294E+000  2.270156435667254E+000  2.298711488382952E+000  2.327625719445479E+000 
 2.356903646762257E+000  2.386549845068999E+000  2.416568946644510E+000  2.446965642034478E+000 
 2.477744680784409E+000  2.508910872181718E+000  2.540469086007225E+000  2.572424253296049E+000 
 2.604781367108084E+000  2.637545483308203E+000  2.670721721356213E+000  2.704315265106810E+000 
 2.738331363619556E+000  2.772775331979043E+000  2.807652552125410E+000  2.842968473695256E+000 
 2.878728614873181E+000  2.914938563254004E+000  2.951603976715819E+000  2.988730584304085E+000 
 3.026324187126765E+000  3.064390659260786E+000  3.102935948669873E+000  3.141966078133907E+000 
 3.181487146190035E+000  3.221505328085536E+000  3.262026876742753E+000  3.303058123736112E+000 
 3.344605480281423E+000  3.386675438237686E+000  3.429274571121414E+000  3.472409535133792E+000 
 3.516087070200713E+000  3.560314001025881E+000  3.605097238157231E+000  3.650443779066664E+000 
 3.696360709243461E+000  3.742855203301389E+000  3.789934526099724E+000  3.837606033878451E+000 
 3.885877175407634E+000  3.934755493151354E+000  3.984248624446207E+000  4.034364302694640E+000 
 4.085110358573354E+000  4.136494721256810E+000  4.188525419656225E+000  4.241210583674091E+000 
 4.294558445474458E+000  4.348577340769285E+000  4.403275710120849E+000  4.458662100260653E+000 
 4.514745165424849E+000  4.571533668706456E+000  4.629036483424664E+000  4.687262594511246E+000 
 4.746221099914531E+000  4.805921212020947E+000  4.866372259094456E+000  4.927583686734168E+000 
 4.989565059350172E+000  5.052326061658046E+000  5.115876500192102E+000  5.180226304837634E+000 
 5.245385530382560E+000  5.311364358088418E+000  5.378173097281282E+000  5.445822186962583E+000 
 5.514322197440200E+000  5.583683831980152E+000  5.653917928478934E+000  5.725035461157026E+000 
 5.797047542273609E+000  5.869965423862848E+000  5.943800499492111E+000  6.018564306042167E+000 
 6.094268525509905E+000  6.170924986833652E+000  6.248545667741425E+000  6.327142696622557E+000 
 6.406728354422699E+000  6.487315076562809E+000  6.568915454882188E+000  6.651542239605943E+000 
 6.735208341337316E+000  6.819926833074899E+000  6.905710952255398E+000  6.992574102821979E+000 
 7.080529857318615E+000  7.169591959010919E+000  7.259774324033454E+000  7.351091043564246E+000 
 7.443556386026518E+000  7.537184799318128E+000  7.631990913069164E+000  7.727989540927762E+000 
 7.825195682874845E+000  7.923624527567876E+000  8.023291454714064E+000  8.124212037473580E+000 
 8.226402044892774E+000  8.329877444368227E+000  8.434654404141646E+000  8.540749295826133E+000 
 8.648178696964399E+000  8.756959393618907E+000  8.867108382994839E+000  8.978642876095902E+000 
 9.091580300413529E+000  9.205938302650077E+000  9.321734751476024E+000  9.438987740322105E+000 
 9.557715590206399E+000  9.677936852596970E+000  9.799670312310692E+000  9.922934990448276E+000 
 1.004775014736649E+001  1.017413528568755E+001  1.030211015334642E+001  1.043169474667658E+001 
 1.056290931353433E+001  1.069577435646273E+001  1.083031063589507E+001  1.096653917339869E+001 
 1.110448125495976E+001  1.124415843430915E+001  1.138559253629031E+001  1.152880566026946E+001 
 1.167382018358854E+001  1.182065876506190E+001  1.196934434851660E+001  1.211990016637757E+001 
 1.227234974329769E+001  1.242671689983347E+001  1.258302575616723E+001  1.274130073587572E+001 
 1.290156656974657E+001  1.306384829964241E+001  1.322817128241365E+001  1.339456119386072E+001 
 1.356304403274575E+001  1.373364612485512E+001  1.390639412711285E+001  1.408131503174569E+001 
 1.425843617050092E+001  1.443778521891679E+001  1.461939020064701E+001  1.480327949183949E+001 
 1.498948182557005E+001  1.517802629633222E+001  1.536894236458309E+001  1.556225986134679E+001 
 1.575800899287552E+001  1.595622034536927E+001  1.615692488975521E+001  1.636015398652665E+001 
 1.656593939064348E+001  1.677431325649379E+001  1.698530814291800E+001  1.719895701829646E+001 
 1.741529326570054E+001  1.763435068810908E+001  1.785616351369003E+001  1.808076640114862E+001 