<UPF version="2.0.1">
  <PP_INFO>
    Generated using "atomic" code by A. Dal Corso  v.5.0.1 svn rev. 268
    Author: D.C.
    Generation date: 12May2015
    Pseudopotential type: NC
    Element: Ba
    Functional: PBE

    Suggested minimum cutoff for wavefunctions:   0. Ry
    Suggested minimum cutoff for charge density:   0. Ry
    The Pseudo was generated with a Scalar-Relativistic Calculation
    L component and cutoff radius for Local Potential:  0   1.8000
    Pseudopotential contains additional information for GIPAW reconstruction.

    Valence configuration: 
    nl pn  l   occ       Rcut    Rcut US       E pseu
    4D  3  2 10.00      1.500      1.500    -7.508622
    5P  2  1  6.00      2.200      2.200    -2.271627
    5S  1  0  2.00      1.763      1.763    -3.379601
    Generation configuration:
    4D  3  2 10.00      1.500      1.500    -7.508619
    5P  2  1  6.00      2.200      2.200    -2.271621
    5S  1  0  2.00      1.800      1.800    -3.379588

  </PP_INFO>
  <!--                               -->
  <!-- END OF HUMAN READABLE SECTION -->
  <!--                               -->
  <PP_HEADER generated='Generated using "atomic" code by A. Dal Corso  v.5.0.1 svn rev. 268'
             author="D.C."
             date="12May2015"
             comment=""
             element="Ba"
             pseudo_type="NC"
             relativistic="scalar"
             is_ultrasoft="F"
             is_paw="F"
             is_coulomb="F"
             has_so="F"
             has_wfc="F"
             has_gipaw="T"
             paw_as_gipaw="F"
             core_correction="T"
             functional="PBE"
             z_valence="2.000000000000000E+001"
             total_psenergy="-3.288740163960404E+002"
             wfc_cutoff="0.000000000000000E+000"
             rho_cutoff="0.000000000000000E+000"
             l_max="2"
             l_max_rho="4"
             l_local="0"
             mesh_size="1665"
             number_of_wfc="3"
             number_of_proj="2"/>
  <PP_MESH dx="1.000000000000000E-002" mesh="1665" xmin="-8.000000000000000E+000" rmax="1.000000000000000E+002"
zmesh="5.600000000000000E+001">
    <PP_R type="real" size="1665" columns="4">
 5.990404069687712E-006  6.050608631489753E-006  6.111418259197132E-006  6.172839033823303E-006 
 6.234877097496900E-006  6.297538654075996E-006  6.360829969768465E-006  6.424757373758626E-006 
 6.489327258840140E-006  6.554546082055328E-006  6.620420365340861E-006  6.686956696179970E-006 
 6.754161728261174E-006  6.822042182143692E-006  6.890604845929476E-006  6.959856575942050E-006 
 7.029804297412113E-006  7.100455005170105E-006  7.171815764345680E-006  7.243893711074229E-006 
 7.316696053210479E-006  7.390230071049315E-006  7.464503118053803E-006  7.539522621590541E-006 
 7.615296083672390E-006  7.691831081708706E-006  7.769135269263074E-006  7.847216376818668E-006 
 7.926082212551322E-006  8.005740663110313E-006  8.086199694407088E-006  8.167467352411826E-006 
 8.249551763958059E-006  8.332461137555329E-006  8.416203764210095E-006  8.500788018254809E-006 
 8.586222358185371E-006  8.672515327506951E-006  8.759675555588402E-006  8.847711758525167E-006 
 8.936632740010908E-006  9.026447392217863E-006  9.117164696686103E-006  9.208793725221676E-006 
 9.301343640803797E-006  9.394823698501139E-006  9.489243246397375E-006  9.584611726525980E-006 
 9.680938675814447E-006  9.778233727037966E-006  9.876506609782743E-006  9.975767151418949E-006 
 1.007602527808346E-005  1.017729101567251E-005  1.027957449084422E-005  1.038288593203135E-005 
 1.048723567046413E-005  1.059263414120334E-005  1.069909188418389E-005  1.080661954526881E-005 
 1.091522787731379E-005  1.102492774124257E-005  1.113573010713294E-005  1.124764605531382E-005 
 1.136068677747331E-005  1.147486357777782E-005  1.159018787400252E-005  1.170667119867314E-005 
 1.182432520021922E-005  1.194316164413897E-005  1.206319241417579E-005  1.218442951350673E-005 
 1.230688506594273E-005  1.243057131714112E-005  1.255550063583005E-005  1.268168551504552E-005 
 1.280913857338060E-005  1.293787255624733E-005  1.306790033715130E-005  1.319923491897892E-005 
 1.333188943529784E-005  1.346587715167025E-005  1.360121146697942E-005  1.373790591476966E-005 
 1.387597416459967E-005  1.401543002340949E-005  1.415628743690123E-005  1.429856049093360E-005 
 1.444226341293056E-005  1.458741057330408E-005  1.473401648689115E-005  1.488209581440529E-005 
 1.503166336390266E-005  1.518273409226285E-005  1.533532310668459E-005  1.548944566619647E-005 
 1.564511718318289E-005  1.580235322492526E-005  1.596116951515881E-005  1.612158193564489E-005 
 1.628360652775922E-005  1.644725949409604E-005  1.661255720008838E-005  1.677951617564458E-005 
 1.694815311680130E-005  1.711848488739321E-005  1.729052852073933E-005  1.746430122134633E-005 
 1.763982036662910E-005  1.781710350864843E-005  1.799616837586626E-005  1.817703287491855E-005 
 1.835971509240589E-005  1.854423329670229E-005  1.873060593978195E-005  1.891885165906447E-005 
 1.910898927927865E-005  1.930103781434497E-005  1.949501646927698E-005  1.969094464210182E-005 
 1.988884192580006E-005  2.008872811026495E-005  2.029062318428153E-005  2.049454733752547E-005 
 2.070052096258199E-005  2.090856465698526E-005  2.111869922527808E-005  2.133094568109242E-005 
 2.154532524925072E-005  2.176185936788843E-005  2.198056969059787E-005  2.220147808859360E-005 
 2.242460665289946E-005  2.264997769655784E-005  2.287761375686091E-005  2.310753759760443E-005 
 2.333977221136406E-005  2.357434082179469E-005  2.381126688595284E-005  2.405057409664240E-005 
 2.429228638478382E-005  2.453642792180735E-005  2.478302312207016E-005  2.503209664529776E-005 
 2.528367339905004E-005  2.553777854121204E-005  2.579443748250970E-005  2.605367588905105E-005 
 2.631551968489279E-005  2.657999505463267E-005  2.684712844602808E-005  2.711694657264078E-005 
 2.738947641650827E-005  2.766474523084207E-005  2.794278054275297E-005  2.822361015600387E-005 
 2.850726215379015E-005  2.879376490154792E-005  2.908314704979073E-005  2.937543753697455E-005 
 2.967066559239168E-005  2.996886073909371E-005  3.027005279684376E-005  3.057427188509863E-005 
 3.088154842602067E-005  3.119191314751999E-005  3.150539708632742E-005  3.182203159109807E-005 
 3.214184832554627E-005  3.246487927161199E-005  3.279115673265906E-005  3.312071333670541E-005 
 3.345358203968613E-005  3.378979612874892E-005  3.412938922558281E-005  3.447239528978052E-005 
 3.481884862223430E-005  3.516878386856610E-005  3.552223602259221E-005  3.587924042982250E-005 
 3.623983279099525E-005  3.660404916564710E-005  3.697192597571894E-005  3.734350000919840E-005 
 3.771880842379847E-005  3.809788875067336E-005  3.848077889817169E-005  3.886751715562724E-005 
 3.925814219718806E-005  3.965269308568385E-005  4.005120927653220E-005  4.045373062168432E-005 
 4.086029737361016E-005  4.127095018932374E-005  4.168573013444880E-005  4.210467868732559E-005 
 4.252783774315841E-005  4.295524961820553E-005  4.338695705401067E-005  4.382300322167709E-005 
 4.426343172618497E-005  4.470828661075179E-005  4.515761236123670E-005  4.561145391058926E-005 
 4.606985664334250E-005  4.653286640015176E-005  4.700052948237858E-005  4.747289265672084E-005 
 4.795000315988965E-005  4.843190870333292E-005  4.891865747800658E-005  4.941029815919372E-005 
 4.990687991137221E-005  5.040845239313100E-005  5.091506576213633E-005  5.142677068014719E-005 
 5.194361831808186E-005  5.246566036113483E-005  5.299294901394543E-005  5.352553700581837E-005 
 5.406347759599670E-005  5.460682457898763E-005  5.515563228994235E-005  5.570995561008919E-005 
 5.626984997222217E-005  5.683537136624405E-005  5.740657634476554E-005  5.798352202876047E-005 
 5.856626611327809E-005  5.915486687321237E-005  5.974938316912991E-005  6.034987445315563E-005 
 6.095640077491840E-005  6.156902278755582E-005  6.218780175377971E-005  6.281279955200229E-005 
 6.344407868252425E-005  6.408170227378478E-005  6.472573408867421E-005  6.537623853091086E-005 
 6.603328065148093E-005  6.669692615514406E-005  6.736724140700366E-005  6.804429343914352E-005 
 6.872814995733107E-005  6.941887934778804E-005  7.011655068402901E-005  7.082123373376908E-005 
 7.153299896590036E-005  7.225191755753926E-005  7.297806140114405E-005  7.371150311170421E-005 
 7.445231603400199E-005  7.520057424994706E-005  7.595635258598438E-005  7.671972662057756E-005 
 7.749077269176606E-005  7.826956790479957E-005  7.905619013984842E-005  7.985071805979164E-005 
 8.065323111808332E-005  8.146380956669808E-005  8.228253446415628E-005  8.310948768362986E-005 
 8.394475192113001E-005  8.478841070377638E-005  8.564054839815038E-005  8.650125021873156E-005 
 8.737060223641921E-005  8.824869138713960E-005  8.913560548053959E-005  9.003143320876748E-005 
 9.093626415534278E-005  9.185018880411400E-005  9.277329854830770E-005  9.370568569966758E-005 
 9.464744349768575E-005  9.559866611892684E-005  9.655944868644571E-005  9.752988727929961E-005 
 9.851007894215673E-005  9.950012169499996E-005  1.005001145429297E-004  1.015101574860642E-004 
 1.025303515295393E-004  1.035607986936097E-004  1.046016020238503E-004  1.056528656014617E-004 
 1.067146945536775E-004  1.077871950642780E-004  1.088704743842078E-004  1.099646408423017E-004 
 1.110698038561174E-004  1.121860739428771E-004  1.133135627305198E-004  1.144523829688640E-004 
 1.156026485408822E-004  1.167644744740905E-004  1.179379769520502E-004  1.191232733259870E-004 
 1.203204821265262E-004  1.215297230755454E-004  1.227511170981473E-004  1.239847863347521E-004 
 1.252308541533111E-004  1.264894451616451E-004  1.277606852199033E-004  1.290447014531511E-004 
 1.303416222640818E-004  1.316515773458574E-004  1.329746976950775E-004  1.343111156248797E-004 
 1.356609647781708E-004  1.370243801409909E-004  1.384014980560125E-004  1.397924562361745E-004 
 1.411973937784543E-004  1.426164511777768E-004  1.440497703410646E-004  1.454974946014282E-004 
 1.469597687325005E-004  1.484367389629128E-004  1.499285529909192E-004  1.514353599991655E-004 
 1.529573106696082E-004  1.544945571985827E-004  1.560472533120231E-004  1.576155542808343E-004 
 1.591996169364206E-004  1.607995996863671E-004  1.624156625302826E-004  1.640479670757977E-004 
 1.656966765547276E-004  1.673619558393939E-004  1.690439714591129E-004  1.707428916168483E-004 
 1.724588862060316E-004  1.741921268275518E-004  1.759427868069153E-004  1.777110412115791E-004 
 1.794970668684569E-004  1.813010423816029E-004  1.831231481500718E-004  1.849635663859588E-004 
 1.868224811326213E-004  1.887000782830831E-004  1.905965455986237E-004  1.925120727275552E-004 
 1.944468512241866E-004  1.964010745679800E-004  1.983749381828983E-004  2.003686394569479E-004 
 2.023823777619176E-004  2.044163544733162E-004  2.064707729905096E-004  2.085458387570617E-004 
 2.106417592812781E-004  2.127587441569580E-004  2.148970050843531E-004  2.170567558913381E-004 
 2.192382125547935E-004  2.214415932222035E-004  2.236671182334711E-004  2.259150101429519E-004 
 2.281854937417102E-004  2.304787960799977E-004  2.327951464899596E-004  2.351347766085670E-004 
 2.374979204007816E-004  2.398848141829518E-004  2.422956966464452E-004  2.447308088815169E-004 
 2.471903944014199E-004  2.496746991667555E-004  2.521839716100707E-004  2.547184626607010E-004 
 2.572784257698634E-004  2.598641169360022E-004  2.624757947303890E-004  2.651137203229791E-004 
 2.677781575085307E-004  2.704693727329820E-004  2.731876351200985E-004  2.759332164983842E-004 
 2.787063914282648E-004  2.815074372295444E-004  2.843366340091372E-004  2.871942646890791E-004 
 2.900806150348191E-004  2.929959736837975E-004  2.959406321743081E-004  2.989148849746542E-004 
 3.019190295125942E-004  3.049533662050856E-004  3.080181984883262E-004  3.111138328480985E-004 
 3.142405788504177E-004  3.173987491724904E-004  3.205886596339798E-004  3.238106292285906E-004 
 3.270649801559675E-004  3.303520378539151E-004  3.336721310309425E-004  3.370255916991338E-004 
 3.404127552073507E-004  3.438339602747664E-004  3.472895490247393E-004  3.507798670190232E-004 
 3.543052632923265E-004  3.578660903872146E-004  3.614627043893640E-004  3.650954649631726E-004 
 3.687647353877244E-004  3.724708825931199E-004  3.762142771971683E-004  3.799952935424496E-004 
 3.838143097337486E-004  3.876717076758673E-004  3.915678731118145E-004  3.955031956613808E-004 
 3.994780688601000E-004  4.034928901986047E-004  4.075480611623745E-004  4.116439872718854E-004 
 4.157810781231609E-004  4.199597474287341E-004  4.241804130590178E-004  4.284434970840926E-004 
 4.327494258159129E-004  4.370986298509405E-004  4.414915441132034E-004  4.459286078977886E-004 
 4.504102649147719E-004  4.549369633335896E-004  4.595091558278561E-004  4.641272996206314E-004 
 4.687918565301424E-004  4.735032930159675E-004  4.782620802256817E-004  4.830686940419715E-004 
 4.879236151302245E-004  4.928273289865944E-004  4.977803259865538E-004  5.027831014339303E-004 
 5.078361556104378E-004  5.129399938257041E-004  5.180951264678045E-004  5.233020690542991E-004 
 5.285613422837859E-004  5.338734720879700E-004  5.392389896842590E-004  5.446584316288836E-004 
 5.501323398705551E-004  5.556612618046584E-004  5.612457503279949E-004  5.668863638940703E-004 
 5.725836665689425E-004  5.783382280876260E-004  5.841506239110682E-004  5.900214352836952E-004 
 5.959512492915376E-004  6.019406589209360E-004  6.079902631178454E-004  6.141006668477269E-004 
 6.202724811560455E-004  6.265063232293756E-004  6.328028164571186E-004  6.391625904938446E-004 
 6.455862813222573E-004  6.520745313167932E-004  6.586279893078574E-004  6.652473106467108E-004 
 6.719331572710036E-004  6.786861977709702E-004  6.855071074562871E-004  6.923965684236073E-004 
 6.993552696247690E-004  7.063839069356919E-004  7.134831832259628E-004  7.206538084291276E-004 
 7.278964996136824E-004  7.352119810547813E-004  7.426009843066640E-004  7.500642482758134E-004 
 7.576025192948462E-004  7.652165511971464E-004  7.729071053922485E-004  7.806749509419811E-004 
 7.885208646373725E-004  7.964456310763306E-004  8.044500427421040E-004  8.125349000825280E-004 
 8.207010115900751E-004  8.289491938827008E-004  8.372802717855091E-004  8.456950784132309E-004 
 8.541944552535423E-004  8.627792522512102E-004  8.714503278930889E-004  8.802085492939674E-004 
 8.890547922832847E-004  8.979899414927119E-004  9.070148904446165E-004  9.161305416414132E-004 
 9.253378066558185E-004  9.346376062220068E-004  9.440308703276855E-004  9.535185383070912E-004 
 9.631015589349289E-004  9.727808905212475E-004  9.825575010072726E-004  9.924323680621980E-004 
 1.002406479180959E-003  1.012480831782980E-003  1.022656433311917E-003  1.032934301336401E-003 
 1.043315463651801E-003  1.053800958382997E-003  1.064391834088202E-003  1.075089149863814E-003 
 1.085893975450321E-003  1.096807391339288E-003  1.107830488881398E-003  1.118964370395593E-003 
 1.130210149279299E-003  1.141568950119778E-003  1.153041908806580E-003  1.164630172645135E-003 
 1.176334900471482E-003  1.188157262768158E-003  1.200098441781246E-003  1.212159631638598E-003 
 1.224342038469249E-003  1.236646880524036E-003  1.249075388297417E-003  1.261628804650529E-003 
 1.274308384935466E-003  1.287115397120823E-003  1.300051121918493E-003  1.313116852911733E-003 
 1.326313896684534E-003  1.339643572952267E-003  1.353107214693669E-003  1.366706168284134E-003 
 1.380441793630353E-003  1.394315464306307E-003  1.408328567690624E-003  1.422482505105322E-003 
 1.436778691955937E-003  1.451218557873066E-003  1.465803546855336E-003  1.480535117413797E-003 
 1.495414742717786E-003  1.510443910742227E-003  1.525624124416451E-003  1.540956901774473E-003 
 1.556443776106810E-003  1.572086296113796E-003  1.587886026060470E-003  1.603844545932993E-003 
 1.619963451596653E-003  1.636244354955444E-003  1.652688884113273E-003  1.669298683536758E-003 
 1.686075414219684E-003  1.703020753849101E-003  1.720136396973090E-003  1.737424055170228E-003 
 1.754885457220741E-003  1.772522349279387E-003  1.790336495050067E-003  1.808329675962204E-003 
 1.826503691348883E-003  1.844860358626790E-003  1.863401513477947E-003  1.882129010033292E-003 
 1.901044721058086E-003  1.920150538139196E-003  1.939448371874250E-003  1.958940152062704E-003 
 1.978627827898819E-003  1.998513368166588E-003  2.018598761436605E-003  2.038886016264937E-003 
 2.059377161393974E-003  2.080074245955304E-003  2.100979339674629E-003  2.122094533078744E-003 
 2.143421937704585E-003  2.164963686310386E-003  2.186721933088963E-003  2.208698853883122E-003 
 2.230896646403257E-003  2.253317530447120E-003  2.275963748121800E-003  2.298837564067933E-003 
 2.321941265686177E-003  2.345277163365947E-003  2.368847590716460E-003  2.392654904800089E-003 
 2.416701486368084E-003  2.440989740098640E-003  2.465522094837373E-003  2.490301003840196E-003 
 2.515328945018661E-003  2.540608421187742E-003  2.566141960316125E-003  2.591932115778996E-003 
 2.617981466613396E-003  2.644292617776115E-003  2.670868200404199E-003  2.697710872078052E-003 
 2.724823317087212E-003  2.752208246698775E-003  2.779868399428525E-003  2.807806541314780E-003 
 2.836025466195013E-003  2.864527995985227E-003  2.893316980962156E-003  2.922395300048288E-003 
 2.951765861099760E-003  2.981431601197155E-003  3.011395486939205E-003  3.041660514739455E-003 
 3.072229711125903E-003  3.103106133043663E-003  3.134292868160658E-003  3.165793035176391E-003 
 3.197609784133808E-003  3.229746296734323E-003  3.262205786655975E-003  3.294991499874810E-003 
 3.328106714989465E-003  3.361554743549050E-003  3.395338930384295E-003  3.429462653942040E-003 
 3.463929326623071E-003  3.498742395123381E-003  3.533905340778833E-003  3.569421679913296E-003 
 3.605294964190276E-003  3.641528780968098E-003  3.678126753658633E-003  3.715092542089650E-003 
 3.752429842870800E-003  3.790142389763270E-003  3.828233954053178E-003  3.866708344928697E-003 
 3.905569409860980E-003  3.944821034988897E-003  3.984467145507676E-003  4.024511706061404E-003 
 4.064958721139515E-003  4.105812235477213E-003  4.147076334459979E-003  4.188755144532100E-003 
 4.230852833609319E-003  4.273373611495618E-003  4.316321730304222E-003  4.359701484882805E-003 
 4.403517213242975E-003  4.447773296994076E-003  4.492474161781367E-003  4.537624277728576E-003 
 4.583228159884929E-003  4.629290368676636E-003  4.675815510362965E-003  4.722808237496857E-003 
 4.770273249390183E-003  4.818215292583696E-003  4.866639161321655E-003  4.915549698031292E-003 
 4.964951793807037E-003  5.014850388899641E-003  5.065250473210187E-003  5.116157086789109E-003 
 5.167575320340188E-003  5.219510315729634E-003  5.271967266500255E-003  5.324951418390846E-003 
 5.378468069860751E-003  5.432522572619718E-003  5.487120332163059E-003  5.542266808312233E-003 
 5.597967515760809E-003  5.654228024625953E-003  5.711053961005429E-003  5.768451007540231E-003 
 5.826424903982848E-003  5.884981447771236E-003  5.944126494608565E-003  6.003865959048811E-003 
 6.064205815088199E-003  6.125152096762618E-003  6.186710898751028E-003  6.248888376984918E-003 
 6.311690749263931E-003  6.375124295877630E-003  6.439195360233544E-003  6.503910349491489E-003 
 6.569275735204327E-003  6.635298053965100E-003  6.701983908060710E-003  6.769339966132124E-003 
 6.837372963841287E-003  6.906089704544663E-003  6.975497059973594E-003  7.045601970921451E-003 
 7.116411447937753E-003  7.187932572029212E-003  7.260172495367845E-003  7.333138442006172E-003 
 7.406837708599669E-003  7.481277665136410E-003  7.556465755674090E-003  7.632409499084407E-003 
 7.709116489804995E-003  7.786594398598849E-003  7.864850973321413E-003  7.943894039695381E-003 
 8.023731502093245E-003  8.104371344327782E-003  8.185821630450419E-003  8.268090505557648E-003 
 8.351186196605524E-003  8.435117013232405E-003  8.519891348589898E-003  8.605517680182190E-003 
 8.692004570713781E-003  8.779360668945805E-003  8.867594710560882E-003  8.956715519036710E-003 
 9.046732006528389E-003  9.137653174759688E-003  9.229488115923199E-003  9.322246013589578E-003 
 9.415936143625871E-003  9.510567875123166E-003  9.606150671333472E-003  9.702694090616073E-003 
 9.800207787393333E-003  9.898701513116198E-003  9.998185117239322E-003  1.009866854820602E-002 
 1.020016185444313E-002  1.030267518536583E-002  1.040621879239267E-002  1.051080302997063E-002 
 1.061643835661062E-002  1.072313533593332E-002  1.083090463772560E-002  1.093975703900743E-002 
 1.104970342510966E-002  1.116075479076252E-002  1.127292224119511E-002  1.138621699324595E-002 
 1.150065037648467E-002  1.161623383434494E-002  1.173297892526887E-002  1.185089732386284E-002 
 1.197000082206499E-002  1.209030133032437E-002  1.221181087879207E-002  1.233454161852419E-002 
 1.245850582269699E-002  1.258371588783417E-002  1.271018433504660E-002  1.283792381128440E-002 
 1.296694709060162E-002  1.309726707543374E-002  1.322889679788782E-002  1.336184942104581E-002 
 1.349613824028081E-002  1.363177668458667E-002  1.376877831792083E-002  1.390715684056080E-002 
 1.404692609047417E-002  1.418810004470240E-002  1.433069282075855E-002  1.447471867803905E-002 
 1.462019201924967E-002  1.476712739184576E-002  1.491553948948700E-002  1.506544315350685E-002 
 1.521685337439663E-002  1.536978529330461E-002  1.552425420355011E-002  1.568027555215288E-002 
 1.583786494137781E-002  1.599703813029516E-002  1.615781103635643E-002  1.632019973698622E-002 
 1.648422047118992E-002  1.664988964117766E-002  1.681722381400445E-002  1.698623972322704E-002 
 1.715695427057720E-002  1.732938452765193E-002  1.750354773762064E-002  1.767946131694943E-002 
 1.785714285714286E-002  1.803661012650300E-002  1.821788107190634E-002  1.840097382059850E-002 
 1.858590668200695E-002  1.877269814957187E-002  1.896136690259572E-002  1.915193180811101E-002 
 1.934441192276712E-002  1.953882649473590E-002  1.973519496563656E-002  1.993353697247983E-002 
 2.013387234963173E-002  2.033622113079683E-002  2.054060355102193E-002  2.074704004871935E-002 
 2.095555126771090E-002  2.116615805929224E-002  2.137888148431804E-002  2.159374281530805E-002 
 2.181076353857445E-002  2.202996535637044E-002  2.225137018906039E-002  2.247500017731211E-002 
 2.270087768431080E-002  2.292902529799538E-002  2.315946583331735E-002  2.339222233452226E-002 
 2.362731807745421E-002  2.386477657188345E-002  2.410462156385721E-002  2.434687703807462E-002 
 2.459156722028496E-002  2.483871657971036E-002  2.508834983149274E-002  2.534049193916530E-002 
 2.559516811714892E-002  2.585240383327368E-002  2.611222481132546E-002  2.637465703361863E-002 
 2.663972674359412E-002  2.690746044844381E-002  2.717788492176132E-002  2.745102720621930E-002 
 2.772691461627385E-002  2.800557474089585E-002  2.828703544633005E-002  2.857132487888145E-002 
 2.885847146773025E-002  2.914850392777463E-002  2.944145126250229E-002  2.973734276689082E-002 
 3.003620803033724E-002  3.033807693961696E-002  3.064297968187250E-002  3.095094674763208E-002 
 3.126200893385896E-002  3.157619734703099E-002  3.189354340625131E-002  3.221407884639030E-002 
 3.253783572125907E-002  3.286484640681493E-002  3.319514360439900E-002  3.352876034400615E-002 
 3.386572998758843E-002  3.420608623239101E-002  3.454986311432200E-002  3.489709501135606E-002 
 3.524781664697227E-002  3.560206309362645E-002  3.595986977625855E-002  3.632127247583487E-002 
 3.668630733292659E-002  3.705501085132364E-002  3.742741990168509E-002  3.780357172522634E-002 
 3.818350393744318E-002  3.856725453187347E-002  3.895486188389642E-002  3.934636475457033E-002 
 3.974180229450838E-002  4.014121404779415E-002  4.054463995593583E-002  4.095212036186041E-002 
 4.136369601394806E-002  4.177940807010697E-002  4.219929810188917E-002  4.262340809864784E-002 
 4.305178047173592E-002  4.348445805874779E-002  4.392148412780269E-002  4.436290238187173E-002 
 4.480875696314817E-002  4.525909245746168E-002  4.571395389873697E-002  4.617338677349730E-002 
 4.663743702541286E-002  4.710615105989562E-002  4.757957574873961E-002  4.805775843480826E-002 
 4.854074693676867E-002  4.902858955387350E-002  4.952133507079102E-002  5.001903276248353E-002 
 5.052173239913504E-002  5.102948425112796E-002  5.154233909407071E-002  5.206034821387495E-002 
 5.258356341188436E-002  5.311203701005473E-002  5.364582185618628E-002  5.418497132920846E-002 
 5.472953934451795E-002  5.527958035936990E-002  5.583514937832424E-002  5.639630195874588E-002 
 5.696309421636044E-002  5.753558283086607E-002  5.811382505160125E-002  5.869787870326994E-002 
 5.928780219172413E-002  5.988365450980405E-002  6.048549524323816E-002  6.109338457660134E-002 
 6.170738329933351E-002  6.232755281181860E-002  6.295395513152467E-002  6.358665289920570E-002 
 6.422570938516570E-002  6.487118849558594E-002  6.552315477891511E-002  6.618167343232502E-002 
 6.684681030822971E-002  6.751863192087108E-002  6.819720545297027E-002  6.888259876244594E-002 
 6.957488038920022E-002  7.027411956197280E-002  7.098038620526341E-002  7.169375094632506E-002 
 7.241428512222636E-002  7.314206078698529E-002  7.387715071877486E-002  7.461962842720081E-002 
 7.536956816065268E-002  7.612704491372897E-002  7.689213443473589E-002  7.766491323326329E-002 
 7.844545858783498E-002  7.923384855363688E-002  8.003016197032257E-002  8.083447846989734E-002 
 8.164687848468137E-002  8.246744325535317E-002  8.329625483907376E-002  8.413339611769187E-002 
 8.497895080603315E-002  8.583300346027108E-002  8.669563948638274E-002  8.756694514868966E-002 
 8.844700757848416E-002  8.933591478274260E-002  9.023375565292628E-002  9.114061997387017E-002 
 9.205659843276222E-002  9.298178262821162E-002  9.391626507940891E-002  9.486013923537798E-002 
 9.581349948432095E-002  9.677644116305720E-002  9.774906056655723E-002  9.873145495757159E-002 
 9.972372257635817E-002  1.007259626505058E-001  1.017382754048570E-001  1.027607620715309E-001 
 1.037935249000462E-001  1.048366671675464E-001  1.058902931891275E-001  1.069545083282700E-001 
 1.080294190073741E-001  1.091151327184038E-001  1.102117580336349E-001  1.113194046165128E-001 
 1.124381832326189E-001  1.135682057607470E-001  1.147095852040916E-001  1.158624357015485E-001 
 1.170268725391277E-001  1.182030121614836E-001  1.193909721835584E-001  1.205908714023444E-001 
 1.218028298087634E-001  1.230269685996659E-001  1.242634101899512E-001  1.255122782248090E-001 
 1.267736975920828E-001  1.280477944347610E-001  1.293346961635896E-001  1.306345314698137E-001 
 1.319474303380473E-001  1.332735240592713E-001  1.346129452439628E-001  1.359658278353566E-001 
 1.373323071228394E-001  1.387125197554782E-001  1.401066037556866E-001  1.415146985330266E-001 
 1.429369448981492E-001  1.443734850768761E-001  1.458244627244223E-001  1.472900229397617E-001 
 1.487703122801375E-001  1.502654787757167E-001  1.517756719443951E-001  1.533010428067481E-001 
 1.548417439011331E-001  1.563979292989435E-001  1.579697546200157E-001  1.595573770481919E-001 
 1.611609553470381E-001  1.627806498757199E-001  1.644166226050403E-001  1.660690371336355E-001 
 1.677380587043354E-001  1.694238542206880E-001  1.711265922636496E-001  1.728464431084435E-001 
 1.745835787415875E-001  1.763381728780927E-001  1.781104009788344E-001  1.799004402680998E-001 
 1.817084697513096E-001  1.835346702329187E-001  1.853792243344972E-001  1.872423165129923E-001 
 1.891241330791746E-001  1.910248622162690E-001  1.929446939987726E-001  1.948838204114639E-001 
 1.968424353686001E-001  1.988207347333091E-001  2.008189163371758E-001  2.028371800000260E-001 
 2.048757275499076E-001  2.069347628432750E-001  2.090144917853726E-001  2.111151223508280E-001 
 2.132368646044484E-001  2.153799307222271E-001  2.175445350125620E-001  2.197308939376859E-001 
 2.219392261353132E-001  2.241697524405040E-001  2.264226959077480E-001  2.286982818332686E-001 
 2.309967377775551E-001  2.333182935881172E-001  2.356631814224707E-001  2.380316357713531E-001 
 2.404238934821730E-001  2.428401937826950E-001  2.452807783049632E-001  2.477458911094628E-001 
 2.502357787095290E-001  2.527506900959965E-001  2.552908767621000E-001  2.578565927286229E-001 
 2.604480945692997E-001  2.630656414364744E-001  2.657094950870152E-001  2.683799199084896E-001 
 2.710771829456055E-001  2.738015539269144E-001  2.765533052917846E-001  2.793327122176459E-001 
 2.821400526475070E-001  2.849756073177504E-001  2.878396597862060E-001  2.907324964605079E-001 
 2.936544066267333E-001  2.966056824783340E-001  2.995866191453550E-001  3.025975147239467E-001 
 3.056386703061764E-001  3.087103900101363E-001  3.118129810103568E-001  3.149467535685239E-001 
 3.181120210645038E-001  3.213091000276844E-001  3.245383101686262E-001  3.277999744110344E-001 
 3.310944189240512E-001  3.344219731548734E-001  3.377829698616970E-001  3.411777451469941E-001 
 3.446066384911210E-001  3.480699927862702E-001  3.515681543707573E-001  3.551014730636559E-001 
 3.586703021997798E-001  3.622749986650166E-001  3.659159229320166E-001  3.695934390962409E-001 
 3.733079149123710E-001  3.770597218310826E-001  3.808492350361949E-001  3.846768334821861E-001 
 3.885428999320907E-001  3.924478209957753E-001  3.963919871686005E-001  4.003757928704702E-001 
 4.043996364852753E-001  4.084639204007291E-001  4.125690510486106E-001  4.167154389454057E-001 
 4.209034987333594E-001  4.251336492219405E-001  4.294063134297230E-001  4.337219186266883E-001 
 4.380808963769531E-001  4.424836825819236E-001  4.469307175238897E-001  4.514224459100519E-001 
 4.559593169169916E-001  4.605417842355904E-001  4.651703061163989E-001  4.698453454154622E-001 
 4.745673696406061E-001  4.793368509981891E-001  4.841542664403198E-001  4.890200977125577E-001 
 4.939348314020849E-001  4.988989589863662E-001  5.039129768822966E-001  5.089773864958441E-001 
 5.140926942721904E-001  5.192594117463768E-001  5.244780555944547E-001  5.297491476851584E-001 
 5.350732151320897E-001  5.404507903464301E-001  5.458824110901823E-001  5.513686205299470E-001 