<UPF version="2.0.1">
  <PP_INFO>
    Generated in analytical, separable form
    Author: Goedecker/Hartwigsen/Hutter/Teter
    Generation date: Phys.Rev.B58, 3641 (1998); B54, 1703 (1996)
    Pseudopotential type: NC
    Element: Sb
    Functional: SLA-PW-PBX-PBC

    Suggested minimum cutoff for wavefunctions:   0. Ry
    Suggested minimum cutoff for charge density:   0. Ry
    The Pseudo was generated with a Non-Relativistic Calculation
    Local Potential: unknown format, L component and cutoff radius: -3   0.0000

    Valence configuration: 
    nl pn  l   occ       Rcut    Rcut US       E pseu

    Generation configuration: not available.
    Converted from CPMD format using cpmd2upf v.5.0.1 - PG 10Jul2012
    Contains atomic orbitals generated by ld1.x - use with care
  </PP_INFO>
  <!--                               -->
  <!-- END OF HUMAN READABLE SECTION -->
  <!--                               -->
  <PP_HEADER generated="Generated in analytical, separable form"
             author="Goedecker/Hartwigsen/Hutter/Teter"
             date="Phys.Rev.B58, 3641 (1998); B54, 1703 (1996)"
             comment="Contains atomic orbitals generated by ld1.x - use with care"
             element="Sb"
             pseudo_type="NC"
             relativistic="no"
             is_ultrasoft="F"
             is_paw="F"
             is_coulomb="F"
             has_so="F"
             has_wfc="F"
             has_gipaw="F"
             paw_as_gipaw="F"
             core_correction="F"
             functional="SLA-PW-PBX-PBC"
             z_valence="5.000000000000000E+000"
             total_psenergy="0.000000000000000E+000"
             wfc_cutoff="0.000000000000000E+000"
             rho_cutoff="0.000000000000000E+000"
             l_max="2"
             l_max_rho="0"
             l_local="-3"
             mesh_size="1243"
             number_of_wfc=" 3"
             number_of_proj="6"/>
  <PP_MESH dx="1.250000000000000E-002" mesh="1243" xmin="-7.000000000000000E+000" rmax="9.880758442825523E+001"
zmesh="5.100000000000000E+001">
    <PP_R type="real" size="1243" columns="4">
 1.788003854028463E-005  1.810494173860828E-005  1.833267387091338E-005  1.856327052080890E-005 
 1.879676771949058E-005  1.903320195137076E-005  1.927261015977919E-005  1.951502975273551E-005 
 1.976049860879432E-005  2.000905508296382E-005  2.026073801269877E-005  2.051558672396899E-005 
 2.077364103740412E-005  2.103494127451562E-005  2.129952826399721E-005  2.156744334810428E-005 
 2.183872838911379E-005  2.211342577586534E-005  2.239157843038446E-005  2.267322981458937E-005 
 2.295842393708185E-005  2.324720536002378E-005  2.353961920610002E-005  2.383571116556892E-005 
 2.413552750340159E-005  2.443911506651077E-005  2.474652129107087E-005  2.505779420992989E-005 
 2.537298246011467E-005  2.569213529043059E-005  2.601530256915670E-005  2.634253479183778E-005 
 2.667388308917439E-005  2.700939923501210E-005  2.734913565443135E-005  2.769314543193885E-005 
 2.804148231976224E-005  2.839420074624893E-005  2.875135582437065E-005  2.911300336033503E-005 
 2.947919986230534E-005  2.985000254923003E-005  3.022546935978334E-005  3.060565896141828E-005 
 3.099063075953367E-005  3.138044490675617E-005  3.177516231233935E-005  3.217484465168090E-005 
 3.257955437595949E-005  3.298935472189296E-005  3.340430972161910E-005  3.382448421270083E-005 
 3.424994384825725E-005  3.468075510722198E-005  3.511698530473078E-005  3.555870260263951E-005 
 3.600597602017465E-005  3.645887544471767E-005  3.691747164272504E-005  3.738183627078582E-005 
 3.785204188681783E-005  3.832816196140523E-005  3.881027088927836E-005  3.929844400093802E-005 
 3.979275757442616E-005  4.029328884724430E-005  4.080011602842214E-005  4.131331831073793E-005 
 4.183297588309231E-005  4.235916994303833E-005  4.289198270946834E-005  4.343149743546111E-005 
 4.397779842129026E-005  4.453097102759622E-005  4.509110168872423E-005  4.565827792622968E-005 
 4.623258836255358E-005  4.681412273487007E-005  4.740297190910791E-005  4.799922789414869E-005 
 4.860298385620310E-005  4.921433413336860E-005  4.983337425036977E-005  5.046020093348432E-005 
 5.109491212565683E-005  5.173760700180238E-005  5.238838598430295E-005  5.304735075869856E-005 
 5.371460428957585E-005  5.439025083665664E-005  5.507439597108849E-005  5.576714659194054E-005 
 5.646861094290673E-005  5.717889862921898E-005  5.789812063477347E-005  5.862638933947177E-005 
 5.936381853678069E-005  6.011052345151261E-005  6.086662075782958E-005  6.163222859747413E-005 
 6.240746659822876E-005  6.319245589260836E-005  6.398731913678722E-005  6.479218052976435E-005 
 6.560716583277004E-005  6.643240238891592E-005  6.726801914309284E-005  6.811414666211869E-005 
 6.897091715513977E-005  6.983846449428882E-005  7.071692423560255E-005  7.160643364020281E-005 
 7.250713169574376E-005  7.341915913812902E-005  7.434265847350211E-005  7.527777400051301E-005 
 7.622465183286531E-005  7.718343992214674E-005  7.815428808094687E-005  7.913734800626585E-005 
 8.013277330321699E-005  8.114071950902818E-005  8.216134411734469E-005  8.319480660283805E-005 
 8.424126844612431E-005  8.530089315899547E-005  8.637384630996874E-005  8.746029555015689E-005 
 8.856041063946403E-005  8.967436347311124E-005  9.080232810849502E-005  9.194448079238453E-005 
 9.310099998846035E-005  9.427206640519980E-005  9.545786302411301E-005  9.665857512833436E-005 
 9.787439033157288E-005  9.910549860742773E-005  1.003520923190717E-004  1.016143662493083E-004 
 1.028925176310075E-004  1.041867461779230E-004  1.054972541158984E-004  1.068242462144653E-004 
 1.081679298188387E-004  1.095285148823157E-004  1.109062139990806E-004  1.123012424374232E-004 
 1.137138181733754E-004  1.151441619247696E-004  1.165924971857273E-004  1.180590502615796E-004 
 1.195440503042282E-004  1.210477293479511E-004  1.225703223456581E-004  1.241120672056029E-004 
 1.256732048285565E-004  1.272539791454488E-004  1.288546371554827E-004  1.304754289647289E-004 
 1.321166078252052E-004  1.337784301744476E-004  1.354611556755791E-004  1.371650472578827E-004 
 1.388903711578847E-004  1.406373969609549E-004  1.424063976434293E-004  1.441976496152635E-004 
 1.460114327632224E-004  1.478480304946131E-004  1.497077297815679E-004  1.515908212058837E-004 
 1.534975990044269E-004  1.554283611151079E-004  1.573834092234344E-004  1.593630488096512E-004 
 1.613675891964712E-004  1.633973435974080E-004  1.654526291657164E-004  1.675337670439478E-004 
 1.696410824141301E-004  1.717749045485770E-004  1.739355668613384E-004  1.761234069602966E-004 
 1.783387666999180E-004  1.805819922346694E-004  1.828534340731044E-004  1.851534471326316E-004 
 1.874823907949708E-004  1.898406289623075E-004  1.922285301141535E-004  1.946464673649218E-004 
 1.970948185222272E-004  1.995739661459192E-004  2.020842976078577E-004  2.046262051524412E-004 
 2.072000859578952E-004  2.098063421983319E-004  2.124453811065914E-004  2.151176150378721E-004 
 2.178234615341629E-004  2.205633433894836E-004  2.233376887159486E-004  2.261469310106594E-004 
 2.289915092234401E-004  2.318718678254239E-004  2.347884568785024E-004  2.377417321056490E-004 
 2.407321549621264E-004  2.437601927075898E-004  2.468263184790980E-004  2.499310113650405E-004 
 2.530747564799975E-004  2.562580450405390E-004  2.594813744419790E-004  2.627452483360947E-004 
 2.660501767098222E-004  2.693966759649440E-004  2.727852689987771E-004  2.762164852858769E-004 
 2.796908609607697E-004  2.832089389017231E-004  2.867712688155730E-004  2.903784073236160E-004 
 2.940309180485824E-004  2.977293717027048E-004  3.014743461768908E-004  3.052664266310214E-004 
 3.091062055853823E-004  3.129942830132472E-004  3.169312664346250E-004  3.209177710111848E-004 
 3.249544196423776E-004  3.290418430627642E-004  3.331806799405699E-004  3.373715769774781E-004 
 3.416151890096768E-004  3.459121791101797E-004  3.502632186924324E-004  3.546689876152215E-004 
 3.591301742889055E-004  3.636474757829782E-004  3.682215979349884E-004  3.728532554608285E-004 
 3.775431720664104E-004  3.822920805607450E-004  3.871007229704467E-004  3.919698506556751E-004 
 3.969002244275371E-004  4.018926146669659E-004  4.069478014450930E-004  4.120665746451378E-004 
 4.172497340858270E-004  4.224980896463681E-004  4.278124613929955E-004  4.331936797071067E-004 
 4.386425854150118E-004  4.441600299193132E-004  4.497468753319398E-004  4.554039946088544E-004 
 4.611322716864531E-004  4.669326016196839E-004  4.728058907218995E-004  4.787530567064713E-004 
 4.847750288301843E-004  4.908727480384343E-004  4.970471671122539E-004  5.032992508171850E-004 
 5.096299760540264E-004  5.160403320114767E-004  5.225313203206958E-004  5.291039552118135E-004 
 5.357592636724033E-004  5.424982856079525E-004  5.493220740043495E-004  5.562316950924138E-004 
 5.632282285144987E-004  5.703127674931858E-004  5.774864190021037E-004  5.847503039388963E-004 
 5.921055573003628E-004  5.995533283598058E-004  6.070947808466058E-004  6.147310931280567E-004 
 6.224634583934893E-004  6.302930848407072E-004  6.382211958647732E-004  6.462490302491641E-004 
 6.543778423593349E-004  6.626089023387168E-004  6.709434963071771E-004  6.793829265619809E-004 
 6.879285117812753E-004  6.965815872301365E-004  7.053435049692091E-004  7.142156340659653E-004 
 7.231993608086278E-004  7.322960889227769E-004  7.415072397906879E-004  7.508342526734247E-004 
 7.602785849357257E-004  7.698417122737219E-004  7.795251289455160E-004  7.893303480046637E-004 
 7.992589015365926E-004  8.093123408979911E-004  8.194922369592141E-004  8.298001803497317E-004 
 8.402377817066703E-004  8.508066719264780E-004  8.615085024197533E-004  8.723449453692847E-004 
 8.833176939913298E-004  8.944284628001844E-004  9.056789878760808E-004  9.170710271364506E-004 
 9.286063606106065E-004  9.402867907178721E-004  9.521141425492152E-004  9.640902641524233E-004 
 9.762170268208616E-004  9.884963253858701E-004  1.000930078512832E-003  1.013520229000969E-003 
 1.026268744086910E-003  1.039177615752075E-003  1.052248861033924E-003  1.065484522341127E-003 
 1.078886667772691E-003  1.092457391441106E-003  1.106198813799556E-003  1.120113081973241E-003 
 1.134202370094872E-003  1.148468879644383E-003  1.162914839792917E-003  1.177542507751137E-003 
 1.192354169121921E-003  1.207352138257495E-003  1.222538758621048E-003  1.237916403152910E-003 
 1.253487474641326E-003  1.269254406097893E-003  1.285219661137733E-003  1.301385734364424E-003 
 1.317755151759800E-003  1.334330471078632E-003  1.351114282248286E-003  1.368109207773405E-003 
 1.385317903145678E-003  1.402743057258770E-003  1.420387392828461E-003  1.438253666818081E-003 
 1.456344670869292E-003  1.474663231738282E-003  1.493212211737458E-003  1.511994509182681E-003 
 1.531013058846141E-003  1.550270832414916E-003  1.569770838955305E-003  1.589516125383005E-003 
 1.609509776939193E-003  1.629754917672599E-003  1.650254710927655E-003  1.671012359838762E-003 
 1.692031107830795E-003  1.713314239125891E-003  1.734865079256614E-003  1.756686995585583E-003 
 1.778783397831618E-003  1.801157738602528E-003  1.823813513934579E-003  1.846754263838758E-003 
 1.869983572853915E-003  1.893505070606840E-003  1.917322432379413E-003  1.941439379682869E-003 
 1.965859680839289E-003  1.990587151570414E-003  2.015625655593851E-003  2.040979105226798E-003 
 2.066651461997341E-003  2.092646737263455E-003  2.118968992839791E-003  2.145622341632332E-003 
 2.172610948281057E-003  2.199939029810662E-003  2.227610856289486E-003  2.255630751496714E-003 
 2.284003093597980E-003  2.312732315829461E-003  2.341822907190582E-003  2.371279413145425E-003 
 2.401106436332979E-003  2.431308637286298E-003  2.461890735160730E-003  2.492857508471287E-003 
 2.524213795839299E-003  2.555964496748465E-003  2.588114572310396E-003  2.620669046039813E-003 
 2.653633004639465E-003  2.687011598794951E-003  2.720810043979515E-003  2.755033621268983E-003 
 2.789687678166934E-003  2.824777629440261E-003  2.860308957965243E-003  2.896287215584252E-003 
 2.932718023973237E-003  2.969607075520129E-003  3.006960134214284E-003  3.044783036547118E-003 
 3.083081692424072E-003  3.121862086088045E-003  3.161130277054447E-003  3.200892401058009E-003 
 3.241154671011501E-003  3.281923377976521E-003  3.323204892146473E-003  3.365005663841937E-003 
 3.407332224518533E-003  3.450191187787482E-003  3.493589250448990E-003  3.537533193538644E-003 
 3.582029883386955E-003  3.627086272692242E-003  3.672709401607002E-003  3.718906398837948E-003 
 3.765684482759885E-003  3.813050962543600E-003  3.861013239297923E-003  3.909578807226181E-003 
 3.958755254797166E-003  4.008550265930864E-003  4.058971621199072E-003  4.110027199041135E-003 
 4.161724976994964E-003  4.214073032943542E-003  4.267079546377116E-003  4.320752799671253E-003 
 4.375101179380978E-003  4.430133177551195E-003  4.485857393043579E-003  4.542282532880174E-003 
 4.599417413603877E-003  4.657270962656043E-003  4.715852219771417E-003  4.775170338390604E-003 
 4.835234587090324E-003  4.896054351031639E-003  4.957639133426403E-003  5.019998557022160E-003 
 5.083142365605718E-003  5.147080425525634E-003  5.211822727233856E-003  5.277379386846743E-003 
 5.343760647725740E-003  5.410976882077906E-003  5.479038592576616E-003  5.547956414002606E-003 
 5.617741114905689E-003  5.688403599287362E-003  5.759954908304567E-003  5.832406221994915E-003 
 5.905768861023572E-003  5.980054288452144E-003  6.055274111529803E-003  6.131440083506938E-003 
 6.208564105471634E-003  6.286658228209230E-003  6.365734654085290E-003  6.445805738952239E-003 
 6.526883994079993E-003  6.608982088110870E-003  6.692112849039093E-003  6.776289266215187E-003 
 6.861524492375598E-003  6.947831845697821E-003  7.035224811881406E-003  7.123717046255125E-003 
 7.213322375910636E-003  7.304054801863002E-003  7.395928501238373E-003  7.488957829489197E-003 
 7.583157322637282E-003  7.678541699545080E-003  7.775125864215549E-003  7.872924908120917E-003 
 7.971954112560770E-003  8.072228951049776E-003  8.173765091735462E-003  8.276578399846385E-003 
 8.380684940171114E-003  8.486100979568381E-003  8.592842989508812E-003  8.700927648648629E-003 
 8.810371845435721E-003  8.921192680748504E-003  9.033407470567960E-003  9.147033748683303E-003 
 9.262089269431664E-003  9.378592010472239E-003  9.496560175595345E-003  9.616012197566789E-003 
 9.736966741008032E-003  9.859442705312572E-003  9.983459227599007E-003  1.010903568570126E-002 
 1.023619170119639E-002  1.036494714247054E-002  1.049532212782334E-002  1.062733702861152E-002 
 1.076101247243189E-002  1.089636934634454E-002  1.103342880013639E-002  1.117221224962595E-002 
 1.131274138000955E-002  1.145503814924973E-002  1.159912479150618E-002  1.174502382060992E-002 
 1.189275803358105E-002  1.204235051419094E-002  1.219382463656903E-002  1.234720406885510E-002 
 1.250251277689752E-002  1.265977502799789E-002  1.281901539470289E-002  1.298025875864381E-002 
 1.314353031442430E-002  1.330885557355715E-002  1.347626036845044E-002  1.364577085644397E-002 
 1.381741352389635E-002  1.399121519032358E-002  1.416720301258965E-002  1.434540448914984E-002 
 1.452584746434742E-002  1.470856013276435E-002  1.489357104362684E-002  1.508090910526609E-002 
 1.527060358963540E-002  1.546268413688386E-002  1.565718075998779E-002  1.585412384944025E-002 
 1.605354417799965E-002  1.625547290549805E-002  1.645994158370995E-002  1.666698216128232E-002 
 1.687662698872663E-002  1.708890882347369E-002  1.730386083499207E-002  1.752151660997090E-002 
 1.774191015756784E-002  1.796507591472310E-002  1.819104875154026E-002  1.841986397673483E-002 
 1.865155734315126E-002  1.888616505334945E-002  1.912372376526143E-002  1.936427059791925E-002 
 1.960784313725491E-002  1.985447944197323E-002  2.010421804949861E-002  2.035709798199658E-002 
 2.061315875247107E-002  2.087244037093843E-002  2.113498335067906E-002  2.140082871456769E-002 
 2.167001800148330E-002  2.194259327279963E-002  2.221859711895739E-002  2.249807266611907E-002 
 2.278106358290752E-002  2.306761408722923E-002  2.335776895318350E-002  2.365157351805845E-002 
 2.394907368941510E-002  2.425031595226049E-002  2.455534737631107E-002  2.486421562334745E-002 
 2.517696895466161E-002  2.549365623859787E-002  2.581432695818867E-002  2.613903121888634E-002 
 2.646781975639223E-002  2.680074394458425E-002  2.713785580354415E-002  2.747920800768576E-002 
 2.782485389398545E-002  2.817484747031617E-002  2.852924342388631E-002  2.888809712978463E-002 
 2.925146465963277E-002  2.961940279034653E-002  2.999196901300744E-002  3.036922154184576E-002 
 3.075121932333666E-002  3.113802204541067E-002  3.152969014678007E-002  3.192628482638256E-002 
 3.232786805294370E-002  3.273450257465968E-002  3.314625192900181E-002  3.356318045264441E-002 
 3.398535329151757E-002  3.441283641098626E-002  3.484569660615763E-002  3.528400151231783E-002 
 3.572781961550019E-002  3.617722026318629E-002  3.663227367514163E-002  3.709305095438765E-002 
 3.755962409831171E-002  3.803206600991677E-002  3.851045050921270E-002  3.899485234475084E-002 
 3.948534720530348E-002  3.998201173169051E-002  4.048492352875465E-002  4.099416117748739E-002 
 4.150980424730737E-002  4.203193330849334E-002  4.256062994477340E-002  4.309597676607260E-002 
 4.363805742142095E-002  4.418695661202372E-002  4.474276010449617E-002  4.530555474426481E-002 
 4.587542846913710E-002  4.645247032304198E-002  4.703677046994312E-002  4.762842020792724E-002 
 4.822751198346962E-002  4.883413940587905E-002  4.944839726192449E-002  5.007038153064565E-002 
 5.070018939834995E-002  5.133791927379808E-002  5.198367080358055E-002  5.263754488768767E-002 
 5.329964369527542E-002  5.397007068062952E-002  5.464893059933042E-002  5.533632952462160E-002 
 5.603237486398363E-002  5.673717537591690E-002  5.745084118693534E-002  5.817348380877389E-002 
 5.890521615581244E-002  5.964615256271893E-002  6.039640880231437E-002  6.115610210366262E-002 
 6.192535117038762E-002  6.270427619922112E-002  6.349299889878357E-002  6.429164250860148E-002 
 6.510033181836371E-002  6.591919318742021E-002  6.674835456452589E-002  6.758794550783287E-002 
 6.843809720513418E-002  6.929894249436218E-002  7.017061588434471E-002  7.105325357582243E-002 
 7.194699348273031E-002  7.285197525374718E-002  7.376834029411591E-002  7.469623178773847E-002 
 7.563579471954855E-002  7.658717589816576E-002  7.755052397883488E-002  7.852598948665346E-002 
 7.951372484009170E-002  8.051388437480814E-002  8.152662436776489E-002  8.255210306164633E-002 
 8.359048068958469E-002  8.464191950019699E-002  8.570658378293647E-002  8.678463989376345E-002 
 8.787625628113857E-002  8.898160351234323E-002  9.010085430013119E-002  9.123418352971516E-002 
 9.238176828609301E-002  9.354378788171776E-002  9.472042388451531E-002  9.591186014625504E-002 
 9.711828283127681E-002  9.833988044557965E-002  9.957684386627615E-002  1.008293663714174E-001 
 1.020976436701932E-001  1.033818739335117E-001  1.046822578249643E-001  1.059989985321798E-001 
 1.073323017985726E-001  1.086823759554907E-001  1.100494319547678E-001  1.114336834016852E-001 
 1.128353465883477E-001  1.142546405274799E-001  1.156917869866474E-001  1.171470105229084E-001 
 1.186205385179010E-001  1.201126012133723E-001  1.216234317471543E-001  1.231532661895915E-001 
 1.247023435804281E-001  1.262709059661581E-001  1.278591984378454E-001  1.294674691694202E-001 
 1.310959694564563E-001  1.327449537554369E-001  1.344146797235134E-001  1.361054082587655E-001 
 1.378174035409666E-001  1.395509330728627E-001  1.413062677219700E-001  1.430836817628987E-001 
 1.448834529202089E-001  1.467058624118056E-001  1.485511949928794E-001  1.504197390004006E-001 
 1.523117863981721E-001  1.542276328224489E-001  1.561675776281329E-001  1.581319239355466E-001 
 1.601209786777971E-001  1.621350526487348E-001  1.641744605515151E-001  1.662395210477721E-001 
 1.683305568074097E-001  1.704478945590198E-001  1.725918651409336E-001  1.747628035529165E-001 
 1.769610490085123E-001  1.791869449880456E-001  1.814408392922921E-001  1.837230840968223E-001 
 1.860340360070300E-001  1.883740561138531E-001  1.907435100501939E-001  1.931427680480508E-001 
 1.955722049963672E-001  1.980322004996090E-001  2.005231389370785E-001  2.030454095229744E-001 
 2.055994063672074E-001  2.081855285369806E-001  2.108041801191443E-001  2.134557702833362E-001 
 2.161407133459138E-001  2.188594288346936E-001  2.216123415545017E-001  2.243998816535515E-001 
 2.272224846906548E-001  2.300805917032787E-001  2.329746492764589E-001  2.359051096125792E-001 
 2.388724306020290E-001  2.418770758947502E-001  2.449195149726826E-001  2.480002232231222E-001 
 2.511196820130008E-001  2.542783787641008E-001  2.574768070292162E-001  2.607154665692704E-001 
 2.639948634314058E-001  2.673155100280542E-001  2.706779252170020E-001  2.740826343824636E-001 
 2.775301695171727E-001  2.810210693055086E-001  2.845558792076652E-001  2.881351515448813E-001 
 2.917594455857420E-001  2.954293276335646E-001  2.991453711148856E-001  3.029081566690593E-001 
 3.067182722389839E-001  3.105763131629691E-001  3.144828822677583E-001  3.184385899627225E-001 
 3.224440543352365E-001  3.264999012472579E-001  3.306067644331185E-001  3.347652855985463E-001 
 3.389761145209343E-001  3.432399091508684E-001  3.475573357149343E-001  3.519290688198167E-001 
 3.563557915577072E-001  3.608381956130403E-001  3.653769813705690E-001  3.699728580248018E-001 
 3.746265436908168E-001  3.793387655164670E-001  3.841102597960001E-001  3.889417720851046E-001 
 3.938340573174054E-001  3.987878799224239E-001  4.038040139450203E-001  4.088832431663415E-001 
 4.140263612262868E-001  4.192341717475168E-001  4.245074884610209E-001  4.298471353332641E-001 
 4.352539466949342E-001  4.407287673713064E-001  4.462724528142498E-001  4.518858692358939E-001 
 4.575698937439749E-001  4.633254144788868E-001  4.691533307524540E-001  4.750545531884508E-001 
 4.810300038648895E-001  4.870806164580951E-001  4.932073363885956E-001  4.994111209688450E-001 
 5.056929395528054E-001  5.120537736874113E-001  5.184946172659373E-001  5.250164766832968E-001 
 5.316203709932923E-001  5.383073320678453E-001  5.450784047582290E-001  5.519346470583265E-001 
 5.588771302699469E-001  5.659069391702164E-001  5.730251721810775E-001  5.802329415409210E-001 
 5.875313734783730E-001  5.949216083882732E-001  6.024048010098615E-001  6.099821206072094E-001 
 6.176547511519206E-001  6.254238915081277E-001  6.332907556198175E-001  6.412565727005132E-001 
 6.493225874253398E-001  6.574900601255088E-001  6.657602669852464E-001  6.741345002412000E-001 
 6.826140683843539E-001  6.912002963644815E-001  6.998945257971744E-001  7.086981151734696E-001 
 7.176124400721179E-001  7.266388933745215E-001  7.357788854823729E-001  7.450338445380349E-001 
 7.544052166476892E-001  7.638944661072938E-001  7.735030756313834E-001  7.832325465847442E-001 
 7.930843992170081E-001  8.030601729001926E-001  8.131614263692308E-001  8.233897379655296E-001 
 8.337467058835845E-001  8.442339484207048E-001  8.548531042298732E-001  8.656058325757893E-001 
 8.764938135941345E-001  8.875187485540939E-001  8.986823601241861E-001  9.099863926414313E-001 
 9.214326123839079E-001  9.330228078467393E-001  9.447587900215458E-001  9.566423926794204E-001 
 9.686754726574552E-001  9.808599101488779E-001  9.931976089968366E-001  1.005690496991877E+000 
 1.018340526173166E+000  1.031149673133499E+000  1.044119939328150E+000  1.057253351387599E+000 
 1.070551961434202E+000  1.084017847402832E+000  1.097653113365572E+000  1.111459889860467E+000 
 1.125440334224436E+000  1.139596630930354E+000  1.153930991928381E+000  1.168445656991588E+000 
 1.183142894065922E+000  1.198024999624576E+000  1.213094299026822E+000  1.228353146881350E+000 
 1.243803927414183E+000  1.259449054841214E+000  1.275290973745432E+000  1.291332159458897E+000 
 1.307575118449514E+000  1.324022388712670E+000  1.340676540167807E+000  1.357540175059973E+000 
 1.374615928366430E+000  1.391906468208371E+000  1.409414496267825E+000  1.427142748209798E+000 
 1.445093994109723E+000  1.463271038886294E+000  1.481676722739739E+000  1.500313921595606E+000 
 1.519185547554135E+000  1.538294549345278E+000  1.557643912789439E+000  1.577236661264026E+000 
 1.597075856175846E+000  1.617164597439471E+000  1.637506023961594E+000  1.658103314131492E+000 
 1.678959686317660E+000  1.700078399370684E+000  1.721462753132448E+000  1.743116088951732E+000 
 1.765041790206312E+000  1.787243282831616E+000  1.809724035856037E+000  1.832487561942974E+000 
 1.855537417939689E+000  1.878877205433078E+000  1.902510571312420E+000  1.926441208339217E+000 
 1.950672855724193E+000  1.975209299711551E+000  2.000054374170584E+000  2.025211961194723E+000 
 2.050685991708122E+000  2.076480446079881E+000  2.102599354745972E+000  2.129046798839014E+000 
 2.155826910825953E+000  2.182943875153772E+000  2.210401928903318E+000  2.238205362451354E+000 
 2.266358520140936E+000  2.294865800960233E+000  2.323731659229869E+000  2.352960605298930E+000 
 2.382557206249705E+000  2.412526086611307E+000  2.442871929082264E+000  2.473599475262199E+000 
 2.504713526392724E+000  2.536218944107627E+000  2.568120651192524E+000  2.600423632354052E+000 
 2.633132934998736E+000  2.666253670021666E+000  2.699791012605073E+000  2.733750203026967E+000 
 2.768136547479941E+000  2.802955418900275E+000  2.838212257807470E+000  2.873912573154337E+000 
 2.910061943187779E+000  2.946666016320412E+000  2.983730512013130E+000  3.021261221668799E+000 
 3.059264009537159E+000  3.097744813631130E+000  3.136709646654641E+000  3.176164596942125E+000 
 3.216115829409840E+000  3.256569586519139E+000  3.297532189251874E+000  3.339010038098062E+000 
 3.381009614055968E+000  3.423537479644790E+000  3.466600279930048E+000  3.510204743561899E+000 
 3.554357683826497E+000  3.599065999710588E+000  3.644336676979493E+000  3.690176789268637E+000 
 3.736593499188827E+000  3.783594059445424E+000  3.831185813971587E+000  3.879376199075796E+000 
 3.928172744603761E+000  3.977583075115001E+000  4.027614911074184E+000  4.078276070057464E+000 
 4.129574467974011E+000  4.181518120302864E+000  4.234115143345378E+000  4.287373755493415E+000 
 4.341302278513474E+000  4.395909138847002E+000  4.451202868927021E+000  4.507192108511354E+000 
 4.563885606032594E+000  4.621292219965071E+000  4.679420920209013E+000  4.738280789492094E+000 
 4.797881024788640E+000  4.858230938756673E+000  4.919339961193031E+000  4.981217640506805E+000 
 5.043873645211274E+000  5.107317765434647E+000  5.171559914449789E+000  5.236610130223180E+000 
 5.302478576983387E+000  5.369175546809227E+000  5.436711461237926E+000  5.505096872893520E+000 
 5.574342467135705E+000  5.644459063729472E+000  5.715457618535690E+000  5.787349225222990E+000 
 5.860145117001188E+000  5.933856668376468E+000  6.008495396928712E+000  6.084072965111107E+000 
 6.160601182072441E+000  6.238092005502315E+000  6.316557543499540E+000  6.396010056464079E+000 
 6.476461959012724E+000  6.557925821918928E+000  6.640414374077011E+000  6.723940504491067E+000 
 6.808517264288916E+000  6.894157868761349E+000  6.980875699427048E+000  7.068684306123484E+000 
 7.157597409124096E+000  7.247628901282135E+000  7.338792850201415E+000  7.431103500434429E+000 
 7.524575275708083E+000  7.619222781177427E+000  7.715060805707767E+000  7.812104324185411E+000 
 7.910368499857559E+000  8.009868686701580E+000  8.110620431824094E+000  8.212639477890274E+000 
 8.315941765583618E+000  8.420543436096752E+000  8.526460833653502E+000  8.633710508062723E+000 
 8.742309217304259E+000  8.852273930147364E+000  8.963621828802145E+000  9.076370311604306E+000 
 9.190536995733666E+000  9.306139719966911E+000  9.423196547464890E+000  9.541725768595052E+000 
 9.661745903789349E+000  9.783275706438079E+000  9.906334165820176E+000  1.003094051007028E+001 
 1.015711420918318E+001  1.028487497805609E+001  1.041424277956904E+001  1.054523782770425E+001 
 1.067788059070450E+001  1.081219179427136E+001  1.094819242480365E+001  1.108590373267657E+001 
 1.122534723556218E+001  1.136654472179150E+001  1.150951825375901E+001  1.165429017136996E+001 
 1.180088309553102E+001  1.194931993168486E+001  1.209962387338909E+001  1.225181840594042E+001 
 1.240592731004420E+001  1.256197466553021E+001  1.271998485511526E+001  1.287998256821294E+001 
 1.304199280479142E+001  1.320604087927979E+001  1.337215242452344E+001  1.354035339578929E+001 
 1.371067007482129E+001  1.388312907394706E+001  1.405775734023608E+001  1.423458215971022E+001 
 1.441363116160732E+001  1.459493232269818E+001  1.477851397165808E+001  1.496440479349317E+001 
 1.515263383402255E+001  1.534323050441678E+001  1.553622458579337E+001  1.573164623387019E+001 
 1.592952598367733E+001  1.612989475432828E+001  1.633278385385114E+001  1.653822498408046E+001 
 1.674625024561083E+001  1.695689214281258E+001  1.717018358891070E+001  1.738615791112761E+001 
 1.760484885589056E+001  1.782629059410457E+001  1.805051772649178E+001  1.827756528899781E+001 
 1.850746875826625E+001  1.874026405718191E+001  1.897598756048387E+001  1.921467610044910E+001 
 1.945636697264757E+001  1.970109794176982E+001  1.994890724752767E+001  2.019983361062931E+001 
 2.045391623882949E+001  2.071119483305579E+001  2.097170959361202E+001  2.123550122645953E+001 
 2.150261094957764E+001  2.177308049940402E+001  2.204695213735609E+001  2.232426865643451E+001 
 2.260507338790958E+001  2.288941020809188E+001  2.317732354518808E+001  2.346885838624281E+001 
 2.376406028416818E+001  2.406297536486131E+001  2.436565033441170E+001  2.467213248639915E+001 
 2.498246970928341E+001  2.529671049388701E+001  2.561490394097182E+001  2.593709976891135E+001 
 2.626334832145920E+001  2.659370057561546E+001  2.692820814959198E+001  2.726692331087775E+001 
 2.760989898440582E+001  2.795718876082298E+001  2.830884690486334E+001  2.866492836382741E+001 
 2.902548877616758E+001  2.939058448018183E+001  2.976027252281672E+001  3.013461066858103E+001 