<UPF version="2.0.1">
  <PP_INFO>
    Generated using FHI98PP, converted with fhi2upf.x v.5.0.2
    Origin: Abinit web site
    Date: 08-Sep-2012 (PG)
    Pseudopotential type: SL
    Element: Se
    Functional: PBE

    Suggested minimum cutoff for wavefunctions:   0. Ry
    Suggested minimum cutoff for charge density:   0. Ry
    The Pseudo was generated with a Non-Relativistic Calculation
    L component and cutoff radius for Local Potential:  2   0.0000

    Valence configuration: 
    nl pn  l   occ       Rcut    Rcut US       E pseu
    4s  4  0  2.00      0.000      0.000     0.000000
    4p  4  1  4.00      0.000      0.000     0.000000
    4d  4  2  0.00      0.000      0.000     0.000000
    4f  4  3  0.00      0.000      0.000     0.000000

    Generation configuration: not available.
    Comment:
    selenium, fhi98PP : Trouiller-Martins-type, GGA Perdew/Burke/Ernzerhof (1996), l
  </PP_INFO>
  <PP_HEADER generated="Generated using FHI98PP, converted with fhi2upf.x v.5.0.2"
             author="unknown"
             date="unknown"
             comment="selenium, fhi98PP : Trouiller-Martins-type, GGA Perdew/Burke/Ernzerhof (1996), l"
             element="Se"
             pseudo_type="SL"
             relativistic="no"
             is_ultrasoft="F"
             is_paw="F"
             is_coulomb="F"
             has_so="F"
             has_wfc="F"
             has_gipaw="F"
             paw_as_gipaw="F"
             core_correction="F"
             functional="PBE"
             z_valence="6.000000000000000E+000"
             total_psenergy="0.000000000000000E+000"
             wfc_cutoff="0.000000000000000E+000"
             rho_cutoff="0.000000000000000E+000"
             l_max="2"
             l_max_rho="0"
             l_local="2"
             mesh_size="533"
             number_of_wfc="3"
             number_of_proj="3"/>
  <PP_MESH dx="2.439988682353512E-002" mesh="533" xmin="-5.075173815233852E+000" rmax="7.977462331182700E+001"
zmesh="3.400000000000000E+001">
    <PP_R type="real" size="533" columns="4">
 1.838235294117600E-004  1.883639705882400E-004  1.930165606617600E-004  1.977840697101100E-004 
 2.026693362319500E-004  2.076752688368800E-004  2.128048479771500E-004  2.180611277221900E-004 
 2.234472375769200E-004  2.289663843450700E-004  2.346218540384000E-004  2.404170138331500E-004 
 2.463553140748200E-004  2.524402903324700E-004  2.586755655036800E-004  2.650648519716300E-004 
 2.716119538153200E-004  2.783207690745600E-004  2.851952920707000E-004  2.922396157848500E-004 
 2.994579342947400E-004  3.068545452718200E-004  3.144338525400300E-004  3.222003686977700E-004 
 3.301587178046000E-004  3.383136381343800E-004  3.466699849963000E-004  3.552327336257100E-004 
 3.640069821462600E-004  3.729979546052700E-004  3.822110040840200E-004  3.916516158849000E-004 
 4.013254107972600E-004  4.112381484439500E-004  4.213957307105100E-004  4.318042052590600E-004 
 4.424697691289600E-004  4.533987724264500E-004  4.645977221053800E-004  4.760732858413800E-004 
 4.878322960016700E-004  4.998817537129100E-004  5.122288330296200E-004  5.248808852054500E-004 
 5.378454430700200E-004  5.511302255138500E-004  5.647431420840400E-004  5.786922976935200E-004 
 5.929859974465500E-004  6.076327515834800E-004  6.226412805475900E-004  6.380205201771200E-004 
 6.537796270254900E-004  6.699279838130200E-004  6.864752050132000E-004  7.034311425770300E-004 
 7.208058917986800E-004  7.386097973261100E-004  7.568534593200600E-004  7.755477397652700E-004 
 7.947037689374700E-004  8.143329520302300E-004  8.344469759453700E-004  8.550578162512200E-004 
 8.761777443126300E-004  8.978193345971500E-004  9.199954721617000E-004  9.427193603240900E-004 
 9.660045285241000E-004  9.898648403786400E-004  1.014314501936000E-003  1.039368070133800E-003 
 1.065040461466100E-003  1.091346960864300E-003  1.118303230797700E-003  1.145925320598400E-003 
 1.174229676017200E-003  1.203233149014800E-003  1.232953007795500E-003  1.263406947088000E-003 
 1.294613098681100E-003  1.326590042218500E-003  1.359356816261300E-003  1.392932929622900E-003 
 1.427338372984600E-003  1.462593630797400E-003  1.498719693478000E-003  1.535738069907000E-003 
 1.573670800233700E-003  1.612540468999400E-003  1.652370218583700E-003  1.693183762982700E-003 
 1.735005401928400E-003  1.777860035356000E-003  1.821773178229300E-003  1.866770975731600E-003 
 1.912880218832200E-003  1.960128360237300E-003  2.008543530735200E-003  2.058154555944300E-003 
 2.108990973476200E-003  2.161083050521000E-003  2.214461801868900E-003  2.269159008375100E-003 
 2.325207235881900E-003  2.382639854608200E-003  2.441491059017000E-003  2.501795888174800E-003 
 2.563590246612700E-003  2.626910925704000E-003  2.691795625568900E-003  2.758282977520400E-003 
 2.826412567065200E-003  2.896224957471700E-003  2.967761713921300E-003  3.041065428255100E-003 
 3.116179744333000E-003  3.193149384018000E-003  3.272020173803300E-003  3.352839072096200E-003 
 3.435654197177000E-003  3.520514855847300E-003  3.607471572786700E-003  3.696576120634500E-003 
 3.787881550814200E-003  3.881442225119300E-003  3.977313848079800E-003  4.075553500127300E-003 
 4.176219671580500E-003  4.279372297468500E-003  4.385072793216000E-003  4.493384091208400E-003 
 4.604370678261300E-003  4.718098634014300E-003  4.834635670274500E-003  4.954051171330300E-003 
 5.076416235262100E-003  5.201803716273100E-003  5.330288268065000E-003  5.461946388286200E-003 
 5.596856464076900E-003  5.735098818739600E-003  5.876755759562500E-003  6.021911626823700E-003 
 6.170652844006200E-003  6.323067969253200E-003  6.479247748093700E-003  6.639285167471600E-003 
 6.803275511108200E-003  6.971316416232500E-003  7.143507931713500E-003  7.319952577626800E-003 
 7.500755406294200E-003  7.686024064829700E-003  7.875868859231000E-003  8.070402820053999E-003 
 8.269741769709300E-003  8.474004391421101E-003  8.683312299889201E-003  8.897790113696499E-003 
 9.117565529504800E-003  9.342769398083499E-003  9.573535802216201E-003  9.810002136530899E-003 
 1.005230918930300E-002  1.030060122627900E-002  1.055502607656800E-002  1.081573522065900E-002 
 1.108288388061000E-002  1.135663111246100E-002  1.163713990093800E-002  1.192457725649200E-002 
 1.221911431472700E-002  1.252092643830100E-002  1.283019332132700E-002  1.314709909636400E-002 
 1.347183244404400E-002  1.380458670541200E-002  1.414555999703500E-002  1.449495532896200E-002 
 1.485298072558700E-002  1.521984934950900E-002  1.559577962844200E-002  1.598099538526500E-002 
 1.637572597128100E-002  1.678020640277200E-002  1.719467750092000E-002  1.761938603519300E-002 
 1.805458487026200E-002  1.850053311655700E-002  1.895749628453600E-002  1.942574644276400E-002 
 1.990556237990100E-002  2.039722977068400E-002  2.090104134602000E-002  2.141729706726700E-002 
 2.194630430482800E-002  2.248837802115800E-002  2.304384095828000E-002  2.361302382995000E-002 
 2.419626551855000E-002  2.479391327685800E-002  2.540632293479600E-002  2.603385911128600E-002 
 2.667689543133400E-002  2.733581474848800E-002  2.801100937277600E-002  2.870288130428300E-002 
 2.941184247249900E-002  3.013831498157000E-002  3.088273136161500E-002  3.164553482624700E-002 
 3.242717953645500E-002  3.322813087100500E-002  3.404886570351900E-002  3.488987268639600E-002 
 3.575165254175000E-002  3.663471835953100E-002  3.753959590301200E-002  3.846682392181600E-002 
 3.941695447268500E-002  4.039055324816000E-002  4.138819991339000E-002  4.241048845125100E-002 
 4.345802751599600E-002  4.453144079564200E-002  4.563136738329400E-002  4.675846215766100E-002 
 4.791339617295600E-002  4.909685705842800E-002  5.030954942777100E-002  5.155219529863700E-002 
 5.282553452251300E-002  5.413032522521900E-002  5.546734425828200E-002  5.683738766146100E-002 
 5.824127113670000E-002  5.967983053377600E-002  6.115392234796000E-002  6.266442422995500E-002 
 6.421223550843499E-002  6.579827772549300E-002  6.742349518531300E-002  6.908885551639000E-002 
 7.079535024764499E-002  7.254399539876200E-002  7.433583208511101E-002  7.617192713761300E-002 
 7.805337373791200E-002  7.998129206923900E-002  8.195682998334899E-002  8.398116368393800E-002 
 8.605549842693100E-002  8.818106923807600E-002  9.035914164825699E-002  9.259101244696900E-002 
 9.487801045440900E-002  9.722149731263301E-002  9.962286829625500E-002  1.020835531431700E-001 
 1.046050169058100E-001  1.071887608233800E-001  1.098363232157200E-001  1.125492803991500E-001 
 1.153292476250100E-001  1.181778800413400E-001  1.210968736783700E-001  1.240879664582200E-001 
 1.271529392297400E-001  1.302936168287100E-001  1.335118691643800E-001  1.368096123327400E-001 
 1.401888097573600E-001  1.436514733583700E-001  1.471996647503200E-001  1.508354964696500E-001 
 1.545611332324500E-001  1.583787932233000E-001  1.622907494159100E-001  1.662993309264800E-001 
 1.704069244003700E-001  1.746159754330600E-001  1.789289900262500E-001  1.833485360799000E-001 
 1.878772449210800E-001  1.925178128706300E-001  1.972730028485300E-001  2.021456460188900E-001 
 2.071386434755600E-001  2.122549679694000E-001  2.174976656782500E-001  2.228698580205000E-001 
 2.283747435136100E-001  2.340155996783900E-001  2.397957849904500E-001  2.457187408797100E-001 
 2.517879937794400E-001  2.580071572257900E-001  2.643799340092700E-001  2.709101183793000E-001 
 2.776015983032700E-001  2.844583577813600E-001  2.914844792185600E-001  2.986841458552600E-001 
 3.060616442578800E-001  3.136213668710500E-001  3.213678146327700E-001  3.293055996541900E-001 
 3.374394479656500E-001  3.457742023304000E-001  3.543148251279700E-001  3.630664013086300E-001 
 3.720341414209500E-001  3.812233847140500E-001  3.906396023164800E-001  4.002884004937000E-001 
 4.101755239859000E-001  4.203068594283500E-001  4.306884388562300E-001  4.413264432959800E-001 
 4.522272064453900E-001  4.633972184445900E-001  4.748431297401700E-001  4.865717550447500E-001 
 4.985900773943600E-001  5.109052523060000E-001  5.235246120379500E-001  5.364556699552900E-001 
 5.497061250031900E-001  5.632838662907700E-001  5.771969777881500E-001  5.914537431395200E-001 
 6.060626505950600E-001  6.210323980647600E-001  6.363718982969599E-001  6.520902841848900E-001 
 6.681969142042600E-001  6.847013779851100E-001  7.016135020213400E-001  7.189433555212700E-001 
 7.367012564026399E-001  7.548977774357900E-001  7.735437525384500E-001  7.926502832261501E-001 
 8.122287452218400E-001  8.322907952288100E-001  8.528483778709700E-001  8.739137328043800E-001 
 8.954994020046499E-001  9.176182372341600E-001  9.402834076938500E-001  9.635084078638800E-001 
 9.873070655381200E-001  1.011693550056900E+000  1.036682380743300E+000  1.062288435547700E+000 
 1.088526959905700E+000  1.115413575815400E+000  1.142964291138000E+000  1.171195509129100E+000 
 1.200124038204600E+000  1.229767101948300E+000  1.260142349366400E+000  1.291267865395700E+000 
 1.323162181671000E+000  1.355844287558300E+000  1.389333641461000E+000  1.423650182405100E+000 
 1.458814341910500E+000  1.494847056155700E+000  1.531769778442700E+000  1.569604491970200E+000 
 1.608373722921900E+000  1.648100553878100E+000  1.688808637558900E+000  1.730522210906600E+000 
 1.773266109516000E+000  1.817065782421000E+000  1.861947307246800E+000  1.907937405735800E+000 
 1.955063459657500E+000  2.003353527111000E+000  2.052836359230700E+000  2.103541417303600E+000 
 2.155498890311000E+000  2.208739712901700E+000  2.263295583810400E+000  2.319198984730500E+000 
 2.376483199653400E+000  2.435182334684800E+000  2.495331338351500E+000  2.556966022408800E+000 
 2.620123083162300E+000  2.684840123316400E+000  2.751155674362300E+000  2.819109219519100E+000 
 2.888741217241200E+000  2.960093125307000E+000  3.033207425502100E+000  3.108127648912000E+000 
 3.184898401840200E+000  3.263565392365600E+000  3.344175457557000E+000  3.426776591358700E+000 
 3.511417973165300E+000  3.598149997102400E+000  3.687024302030900E+000  3.778093802291000E+000 
 3.871412719207600E+000  3.967036613372100E+000  4.065022417722300E+000  4.165428471440100E+000 
 4.268314554684700E+000  4.373741924185400E+000  4.481773349712700E+000  4.592473151450600E+000 
 4.705907238291500E+000  4.822143147077300E+000  4.941250082810100E+000  5.063298959855500E+000 
 5.188362444163900E+000  5.316514996534800E+000  5.447832916949200E+000  5.582394389997800E+000 
 5.720279531430800E+000  5.861570435857100E+000  6.006351225622800E+000  6.154708100895700E+000 
 6.306729390987800E+000  6.462505606945200E+000  6.622129495436700E+000  6.785696093974000E+000 
 6.953302787495200E+000  7.125049366346300E+000  7.301038085695100E+000  7.481373726411700E+000 
 7.666163657454100E+000  7.855517899793200E+000  8.049549191918100E+000  8.248373056958499E+000 
 8.452107871465399E+000  8.660874935890501E+000  8.874798546807000E+000  9.094006070913199E+000 
 9.318628020864701E+000  9.548798132980099E+000  9.784653446864700E+000  1.002633438700200E+001 
 1.027398484636100E+001  1.052775227206600E+001  1.078778775318600E+001  1.105424611069000E+001 
 1.132728598962400E+001  1.160706995356800E+001  1.189376458142100E+001  1.218754056658200E+001 
 1.248857281857700E+001  1.279704056719500E+001  1.311312746920500E+001  1.343702171769500E+001 
 1.376891615412200E+001  1.410900838312800E+001  1.445750089019200E+001  1.481460116217900E+001 
 1.518052181088500E+001  1.555548069961400E+001  1.593970107289500E+001  1.633341168939500E+001 
 1.673684695812300E+001  1.715024707798900E+001  1.757385818081500E+001  1.800793247788100E+001 
 1.845272841008500E+001  1.890851080181400E+001  1.937555101861900E+001  1.985412712877900E+001 
 2.034452406886000E+001  2.084703381336000E+001  2.136195554855000E+001  2.188959585060000E+001 
 2.243026886810900E+001  2.298429650915200E+001  2.355200863292800E+001  2.413374324616100E+001 
 2.472984670434100E+001  2.534067391793800E+001  2.596658856371100E+001  2.660796330123500E+001 
 2.726517999477600E+001  2.793862994064700E+001  2.862871410018100E+001  2.933584333845500E+001 
 3.006043866891500E+001  3.080293150403700E+001  3.156376391218700E+001  3.234338888081800E+001 
 3.314227058617400E+001  3.396088466965300E+001  3.479971852099300E+001  3.565927156846100E+001 
 3.654005557620200E+001  3.744259494893500E+001  3.836742704417300E+001  3.931510249216400E+001 
 4.028618552372100E+001  4.128125430615700E+001  4.230090128751900E+001  4.334573354932100E+001 
 4.441637316798900E+001  4.551345758523800E+001  4.663763998759300E+001  4.778958969528700E+001 
 4.896999256076100E+001  5.017955137701100E+001  5.141898629602400E+001  5.268903525753500E+001 
 5.399045442839600E+001  5.532401865277800E+001  5.669052191350100E+001  5.809077780476500E+001 
 5.952562001654300E+001  6.099590283095100E+001  6.250250163087600E+001  6.404631342115800E+001 
 6.562825736266100E+001  6.724927531951900E+001  6.891033241991100E+001  7.061241763068300E+001 
 7.235654434616100E+001  7.414375099151100E+001  7.597510164100100E+001  7.785168665153400E+001 
 7.977462331182700E+001
    </PP_R>
    <PP_RAB type="real" size="533" columns="4">
 4.485273313149723E-006  4.596059563984754E-006  4.709582235214945E-006  4.825908916424865E-006 
 4.945108866660565E-006  5.067253055667102E-006  5.192414206142057E-006  5.320666837033873E-006 
 5.452087307908412E-006  5.586753864413752E-006  5.724746684864937E-006  5.866147927981137E-006 
 6.011041781802057E-006  6.159514513812616E-006  6.311654522303738E-006  6.467552389004862E-006 
 6.627300933013057E-006  6.790995266058518E-006  6.958732849130124E-006  7.130613550503728E-006 
 7.306739705201272E-006  7.487216175919742E-006  7.672150415464862E-006  7.861652530726875E-006 
 8.055835348235710E-006  8.254814481337288E-006  8.458708399026338E-006  8.667638496482323E-006 
 8.881729167345314E-006  9.101107877778679E-006  9.325905242359808E-006  9.556255101846210E-006 
 9.792294602861883E-006  1.003416427955252E-005  1.028200813725733E-005  1.053597373824759E-005 
 1.079621228958234E-005  1.106287873313514E-005  1.133613183784349E-005  1.161613429423816E-005 
 1.190305281130603E-005  1.219705821574526E-005  1.249832555367420E-005  1.280703419484991E-005 
 1.312336793946259E-005  1.344751512756733E-005  1.377966875121819E-005  1.412002656937338E-005 
 1.446879122563691E-005  1.482617036891014E-005  1.519237677702218E-005  1.556762848341473E-005 
 1.595214890695496E-005  1.634616698495676E-005  1.674991730948515E-005  1.716364026702953E-005 
 1.758758218162509E-005  1.802199546151130E-005  1.846713874941051E-005  1.892327707652106E-005 
 1.939068202031108E-005  1.986963186621287E-005  2.036041177330816E-005  2.086331394410886E-005 
 2.137863779852847E-005  2.190669015215207E-005  2.244778539891024E-005  2.300224569826322E-005 
 2.357040116701044E-005  2.415259007583547E-005  2.474915905070880E-005  2.536046327926083E-005 
 2.598686672225846E-005  2.662874233029793E-005  2.728647226585755E-005  2.796044813082416E-005 
 2.865107119965599E-005  2.935875265828689E-005  3.008391384894742E-005  3.082698652101522E-005 
 3.158841308808495E-005  3.236864689136008E-005  3.316815246957675E-005  3.398740583557397E-005 
 3.482689475971300E-005  3.568711906027988E-005  3.656859090106645E-005  3.747183509632507E-005 
 3.839738942320423E-005  3.934580494195561E-005  4.031764632402227E-005  4.131349218822520E-005 
 4.233393544527502E-005  4.337958365077255E-005  4.445105936694680E-005  4.554900053331126E-005 
 4.667406084648478E-005  4.782691014939160E-005  4.900823483008251E-005  5.021873823038411E-005 
 5.145914106467644E-005  5.273018184897243E-005  5.403261734064281E-005  5.536722298895762E-005 
 5.673479339678329E-005  5.813614279368425E-005  5.957210552068771E-005  6.104353652705064E-005 
 6.255131187926837E-005  6.409632928268547E-005  6.567950861596807E-005  6.730179247878123E-005 
 6.896414675300825E-005  7.066756117780730E-005  7.241304993890033E-005  7.420165227238980E-005 
 7.603443308351780E-005  7.791248358068008E-005  7.983692192512424E-005  8.180889389667379E-005 
 8.382957357592222E-005  8.590016404324818E-005  8.802189809511572E-005  9.019603897806431E-005 
 9.242388114082318E-005  9.470675100500125E-005  9.704600775482607E-005  9.944304414636854E-005 
 1.018992873367852E-004  1.044161997340029E-004  1.069952798674334E-004  1.096380632801582E-004 
 1.123461234431794E-004  1.151210726922246E-004  1.179645631877237E-004  1.208782878984609E-004 
 1.238639816095515E-004  1.269234219553080E-004  1.300584304776030E-004  1.332708737103997E-004 
 1.365626642910473E-004  1.399357620990362E-004  1.433921754228832E-004  1.469339621558286E-004 
 1.505632310210764E-004  1.542821428272981E-004  1.580929117551311E-004  1.619978066754824E-004 
 1.659991525003681E-004  1.700993315671255E-004  1.743007850568349E-004  1.786060144477381E-004 
 1.830175830045977E-004  1.875381173048121E-004  1.921703088022411E-004  1.969169154296563E-004 
 2.017807632407680E-004  2.067647480928145E-004  2.118718373707070E-004  2.171050717537643E-004 
 2.224675670260822E-004  2.279625159316247E-004  2.335931900751368E-004  2.393629418699917E-004 
 2.452752065341753E-004  2.513335041355747E-004  2.575414416877211E-004  2.639027152974023E-004 
 2.704211123652657E-004  2.771005138406862E-004  2.839448965325319E-004  2.909583354769057E-004 
 2.981450063631767E-004  3.055091880203531E-004  3.130552649644550E-004  3.207877300090825E-004 
 3.287111869403021E-004  3.368303532577304E-004  3.451500629831798E-004  3.536752695388701E-004 
 3.624110486964714E-004  3.713626015992742E-004  3.805352578587795E-004  3.899344787279030E-004 
 3.995658603524812E-004  4.094351371031962E-004  4.195481849896337E-004  4.299110251588844E-004 
 4.405298274803023E-004  4.514109142190543E-004  4.625607638002660E-004  4.739860146661316E-004 
 4.856934692284029E-004  4.976900979183308E-004  5.099830433369162E-004  5.225796245073455E-004 
 5.354873412326648E-004  5.487138785611299E-004  5.622671113615751E-004  5.761551090122178E-004 
 5.903861402048253E-004  6.049686778678800E-004  6.199114042112070E-004  6.352232158952371E-004 
 6.509132293278307E-004  6.669907860922294E-004  6.834654585087159E-004  7.003470553338674E-004 
 7.176456276006190E-004  7.353714746023610E-004  7.535351500250446E-004  7.721474682306659E-004 
 7.912195106959560E-004  8.107626326101354E-004  8.307884696356101E-004  8.513089448356116E-004 
 8.723362757730518E-004  8.938829817846406E-004  9.159618914347356E-004  9.385861501531639E-004 
 9.617692280619505E-004  9.855249279950729E-004  1.009867393716562E-003  1.034811118341368E-003 
 1.060370952964377E-003  1.086562115502620E-003  1.113400199755526E-003  1.140901184689478E-003 
 1.169081443951327E-003  1.197957755616925E-003  1.227547312180659E-003  1.257867730791522E-003 
 1.288937063742065E-003  1.320773809216492E-003  1.353396922304141E-003  1.386825826285040E-003 
 1.421080424194303E-003  1.456181110671890E-003  1.492148784105479E-003  1.529004859072894E-003 
 1.566771279091997E-003  1.605470529685561E-003  1.645125651768802E-003  1.685760255367486E-003 
 1.727398533675067E-003  1.770065277456845E-003  1.813785889810019E-003  1.858586401288321E-003 
 1.904493485400141E-003  1.951534474489539E-003  1.999737376009425E-003  2.049130889196865E-003 
 2.099744422160021E-003  2.151608109387369E-003  2.204752829689250E-003  2.259210224582575E-003 
 2.315012717129761E-003  2.372193531242869E-003  2.430786711464567E-003  2.490827143237681E-003 
 2.552350573675742E-003  2.615393632845447E-003  2.679993855576791E-003  2.746189703809580E-003 
 2.814020589493701E-003  2.883526898054006E-003  2.954750012436157E-003  3.027732337743190E-003 
 3.102517326485495E-003  3.179149504449575E-003  3.257674497209500E-003  3.338139057290571E-003 
 3.420591092005680E-003  3.505079691978299E-003  3.591655160370120E-003  3.680369042831191E-003 
 3.771274158189113E-003  3.864424629896591E-003  3.959875918254903E-003  4.057684853435726E-003 
 4.157909669315733E-003  4.260610038147854E-003  4.365847106089945E-003  4.473683529610406E-003 
 4.584183512791940E-003  4.697412845557885E-003  4.813438942843053E-003  4.932330884731309E-003 
 5.054159457584255E-003  5.178997196186432E-003  5.306918426932379E-003  5.437999312077541E-003 
 5.572317895085946E-003  5.709954147094418E-003  5.850990014527742E-003  5.995509467886477E-003 
 6.143598551743301E-003  6.295345435971308E-003  6.450840468239872E-003  6.610176227805422E-003 
 6.773447580632248E-003  6.940751735873846E-003  7.112188303749939E-003  7.287859354852600E-003 
 7.467869480917340E-003  7.652325857096008E-003  7.841338305766402E-003  8.035019361918602E-003 
 8.233484340158029E-003  8.436851403359895E-003  8.645241633023106E-003  8.858779101358755E-003 
 9.077590945162240E-003  9.301807441507808E-003  9.531562085312880E-003  9.766991668820181E-003 
 1.000823636304018E-002  1.025543980120723E-002  1.050874916429704E-002  1.076831526865520E-002 
 1.103429265579097E-002  1.130683968438898E-002  1.158611862459335E-002  1.187229575462075E-002 
 1.216554145976000E-002  1.246603033381606E-002  1.277394128306111E-002  1.308945763275279E-002 
 1.341276723628189E-002  1.374406258701808E-002  1.408354093291738E-002  1.443140439396050E-002 
 1.478786008249118E-002  1.515312022652875E-002  1.552740229612403E-002  1.591092913283817E-002 
 1.630392908241935E-002  1.670663613075523E-002  1.711929004318483E-002  1.754213650725156E-002 
 1.797542727898054E-002  1.841942033277148E-002  1.887438001499084E-002  1.934057720136112E-002 
 1.981828945823484E-002  2.030780120785301E-002  2.080940389768718E-002  2.132339617395998E-002 
 2.185008405945684E-002  2.238978113572531E-002  2.294280872977787E-002  2.350949610540319E-002 
 2.409018065920670E-002  2.468520812148882E-002  2.529493276208947E-002  2.591971760131406E-002 
 2.655993462606583E-002  2.721596501133037E-002  2.788819934710925E-002  2.857703787098263E-002 
 2.928289070639618E-002  3.000617810684530E-002  3.074733070608381E-002  3.150678977452286E-002 
 3.228500748195422E-002  3.308244716675913E-002  3.389958361177832E-002  3.473690332698957E-002 
 3.559490483916607E-002  3.647409898869373E-002  3.737500923371335E-002  3.829817196178522E-002 
 3.924413680924219E-002  4.021346698843119E-002  4.120673962304570E-002  4.222454609173482E-002 
 4.326749238020083E-002  4.433619944199069E-002  4.543130356820790E-002  4.655345676634273E-002 
 4.770332714847202E-002  4.888159932903829E-002  5.008897483246696E-002  5.132617251082650E-002 
 5.259392897184395E-002  5.389299901744894E-002  5.522415609318061E-002  5.658819274868176E-002 
 5.798592110957558E-002  5.941817336098115E-002  6.088580224299702E-002  6.238968155839950E-002 
 6.393070669289203E-002  6.550979514820623E-002  6.712788708836656E-002  6.878594589945046E-002 
 7.048495876316636E-002  7.222593724461517E-002  7.400991789455759E-002  7.583796286655312E-002 
 7.771116054935875E-002  7.963062621492663E-002  8.159750268243458E-002  8.361296099869174E-002 
 8.567820113536041E-002  8.779445270340179E-002  8.996297568517753E-002  9.218506118459988E-002 
 9.446203219585979E-002  9.679524439109929E-002  9.918608692755723E-002  1.016359832746693E-001 
 1.041463920615544E-001  1.067188079454745E-001  1.093547625017258E-001  1.120558251355183E-001 
 1.148236040163673E-001  1.176597470355716E-001  1.205659427873500E-001  1.235439215741973E-001 
 1.265954564370792E-001  1.297223642110763E-001  1.329265066070897E-001  1.362097913202837E-001 
 1.395741731658960E-001  1.430216552430927E-001  1.465542901275978E-001  1.501741810937499E-001 
 1.538834833667649E-001  1.576844054059240E-001  1.615792102194492E-001  1.655702167118699E-001 
 1.696598010646541E-001  1.738503981509504E-001  1.781445029852800E-001  1.825446722090147E-001 
 1.870535256125781E-001  1.916737476952084E-001  1.964080892632802E-001  2.012593690680838E-001 
 2.062304754840661E-001  2.113243682285202E-001  2.165440801237647E-001  2.218927189028234E-001 
 2.273734690597218E-001  2.329895937454979E-001  2.387444367110115E-001  2.446414242977672E-001 
 2.506840674779233E-001  2.568759639446251E-001  2.632208002540566E-001  2.697223540203393E-001 
 2.763844961646406E-001  2.832111932199143E-001  2.902065096924429E-001  2.973746104818439E-001 
 3.047197633607558E-001  3.122463415157457E-001  3.199588261511915E-001  3.278618091571415E-001 
 3.359599958433213E-001  3.442582077406314E-001  3.527613854718430E-001  3.614745916929795E-001 
 3.704030141078005E-001  3.795519685562665E-001  3.889269021796193E-001  3.985333966634436E-001 
 4.083771715610293E-001  4.184640876985955E-001  4.288001506647429E-001  4.393915143861588E-001 
 4.502444847915052E-001  4.613655235658529E-001  4.727612519979342E-001  4.844384549222859E-001 
 4.964040847588703E-001  5.086652656523938E-001  5.212292977140082E-001  5.341036613675639E-001 
 5.472960218033228E-001  5.608142335418822E-001  5.746663451103653E-001  5.888606038345835E-001 
 6.034054607492934E-001  6.183095756297955E-001  6.335818221478497E-001  6.492312931549099E-001 
 6.652673060958483E-001  6.816994085564165E-001  6.985373839477605E-001  7.157912573312587E-001 
 7.334713013873447E-001  7.515880425316073E-001  7.701522671821449E-001  7.891750281815434E-001 
 8.086676513776226E-001  8.286417423666621E-001  8.491091934031081E-001  8.700821904801521E-001 
 8.915732205850122E-001  9.135950791334818E-001  9.361608775880618E-001  9.592840512644852E-001 
 9.829783673307314E-001  1.007257933003803E+000  1.032137203948995E+000  1.057630992886542E+000 
 1.083754478410834E+000  1.110523214027573E+000  1.137953137414045E+000  1.166060579908183E+000 
 1.194862276231925E+000  1.224375374454834E+000  1.254617446203889E+000  1.285606497125106E+000 
 1.317360977604093E+000  1.349899793750929E+000  1.383242318656562E+000  1.417408403927392E+000 
 1.452418391504406E+000  1.488293125774550E+000  1.525053965981194E+000  1.562722798940914E+000 
 1.601322052074764E+000  1.640874706761017E+000  1.681404312018012E+000  1.722934998524861E+000 
 1.765491492988428E+000  1.809099132865238E+000  1.853783881447002E+000  1.899572343318749E+000 
 1.946491780198725E+000
    </PP_RAB>
  </PP_MESH>
  <PP_LOCAL type="real" size="533" columns="4">
-2.266688210920800E+001 -2.266688239061600E+001 -2.266688267348600E+001 -2.266688295819200E+001 
-2.266688324512200E+001 -2.266688353468000E+001 -2.266688382727800E+001 -2.266688412334400E+001 
-2.266688442332000E+001 -2.266688472766600E+001 -2.266688503685600E+001 -2.266688535138000E+001 
-2.266688567175400E+001 -2.266688599850400E+001 -2.266688633218200E+001 -2.266688667336200E+001 
-2.266688702264200E+001 -2.266688738064400E+001 -2.266688774801000E+001 -2.266688812541800E+001 
-2.266688851357000E+001 -2.266688891320000E+001 -2.266688932507200E+001 -2.266688974998600E+001 
-2.266689018877400E+001 -2.266689064231200E+001 -2.266689111150600E+001 -2.266689159731200E+001 
-2.266689210072400E+001 -2.266689262278400E+001 -2.266689316458400E+001 -2.266689372726000E+001 
-2.266689431201000E+001 -2.266689492008400E+001 -2.266689555278800E+001 -2.266689621149400E+001 
-2.266689689764000E+001 -2.266689761273000E+001 -2.266689835834200E+001 -2.266689913612400E+001 
-2.266689994781400E+001 -2.266690079522400E+001 -2.266690168025800E+001 -2.266690260491200E+001 
-2.266690357128200E+001 -2.266690458156000E+001 -2.266690563805000E+001 -2.266690674316400E+001 
-2.266690789943800E+001 -2.266690910952800E+001 -2.266691037622000E+001 -2.266691170244200E+001 
-2.266691309126000E+001 -2.266691454589600E+001 -2.266691606972600E+001 -2.266691766629800E+001 
-2.266691933933000E+001 -2.266692109273000E+001 -2.266692293059400E+001 -2.266692485722200E+001 
-2.266692687713000E+001 -2.266692899505600E+001 -2.266693121597200E+001 -2.266693354509800E+001 
-2.266693598791200E+001 -2.266693855016800E+001 -2.266694123790000E+001 -2.266694405745000E+001 
-2.266694701546600E+001 -2.266695011893400E+001 -2.266695337518600E+001 -2.266695679191600E+001 
-2.266696037720600E+001 -2.266696413953800E+001 -2.266696808781400E+001 -2.266697223138600E+001 
-2.266697658006400E+001 -2.266698114415600E+001 -2.266698593447800E+001 -2.266699096238400E+001 