<UPF version="2.0.1">
  <PP_INFO>
    Generated using "atomic" code by A. Dal Corso  v.5.0.2 svn rev. 9392
    Author: TM
    Generation date: 21Apr2013
    Pseudopotential type: NC
    Element: Sr
    Functional: PBE

    Suggested minimum cutoff for wavefunctions:   0. Ry
    Suggested minimum cutoff for charge density:   0. Ry
    The Pseudo was generated with a Scalar-Relativistic Calculation
    L component and cutoff radius for Local Potential:  0   3.6000

    Valence configuration: 
    nl pn  l   occ       Rcut    Rcut US       E pseu
    5P  2  1  0.00      3.800      3.800    -0.094396
    4D  3  2  0.00      3.600      3.600    -0.094177
    5S  1  0  2.00      4.458      4.458    -0.259158
    Generation configuration:
    5P  2  1  0.00      3.800      3.800    -0.094397
    4D  3  2  0.00      3.600      3.600    -0.094178
    5S  1  0  2.00      3.600      3.600    -0.259158

    Pseudization used: troullier-martins
  </PP_INFO>
  <!--                               -->
  <!-- END OF HUMAN READABLE SECTION -->
  <!--                               -->
  <PP_HEADER generated='Generated using "atomic" code by A. Dal Corso  v.5.0.2 svn rev. 9392'
             author="TM"
             date="21Apr2013"
             comment=""
             element="Sr"
             pseudo_type="NC"
             relativistic="scalar"
             is_ultrasoft="F"
             is_paw="F"
             is_coulomb="F"
             has_so="F"
             has_wfc="F"
             has_gipaw="F"
             paw_as_gipaw="F"
             core_correction="T"
             functional="PBE"
             z_valence="2.000000000000000E+000"
             total_psenergy="-2.420728028904634E+000"
             wfc_cutoff="0.000000000000000E+000"
             rho_cutoff="0.000000000000000E+000"
             l_max="2"
             l_max_rho="4"
             l_local="0"
             mesh_size="1221"
             number_of_wfc="3"
             number_of_proj="2"/>
  <PP_MESH dx="1.250000000000000E-002" mesh="1221" xmin="-7.000000000000000E+000" rmax="1.000000000000000E+002"
zmesh="3.800000000000000E+001">
    <PP_R type="real" size="1221" columns="4">
 2.399689383038201E-005  2.429873759655322E-005  2.460437808991006E-005  2.491386306740142E-005 
 2.522724088668473E-005  2.554456051368181E-005  2.586587153022997E-005  2.619122414182924E-005 
 2.652066918548712E-005  2.685425813766197E-005  2.719204312230624E-005  2.753407691901101E-005 
 2.788041297125290E-005  2.823110539474466E-005  2.858620898589100E-005  2.894577923035048E-005 
 2.930987231170535E-005  2.967854512024032E-005  3.005185526183177E-005  3.042986106694889E-005 
 3.081262159976775E-005  3.120019666740033E-005  3.159264682923950E-005  3.199003340642144E-005 
 3.239241849140739E-005  3.279986495768552E-005  3.321243646959512E-005  3.363019749227433E-005 
 3.405321330173284E-005  3.448154999505158E-005  3.491527450071030E-005  3.535445458904544E-005 
 3.579915888283931E-005  3.624945686804255E-005  3.670541890463155E-005  3.716711623760215E-005 
 3.763462100810196E-005  3.810800626470252E-005  3.858734597481324E-005  3.907271503623913E-005 
 3.956418928888349E-005  4.006184552659820E-005  4.056576150918290E-005  4.107601597453506E-005 
 4.159268865095308E-005  4.211586026959379E-005  4.264561257708702E-005  4.318202834830859E-005 
 4.372519139931405E-005  4.427518660043529E-005  4.483209988954142E-005  4.539601828546691E-005 
 4.596702990160841E-005  4.654522395969265E-005  4.713069080371763E-005  4.772352191406882E-005 
 4.832380992181334E-005  4.893164862317371E-005  4.954713299418362E-005  5.017035920552833E-005 
 5.080142463757130E-005  5.144042789557018E-005  5.208746882508412E-005  5.274264852757471E-005 
 5.340606937620353E-005  5.407783503182787E-005  5.475805045919815E-005  5.544682194335879E-005 
 5.614425710625547E-005  5.685046492355143E-005  5.756555574165487E-005  5.828964129496097E-005 
 5.902283472331061E-005  5.976525058966861E-005  6.051700489802463E-005  6.127821511151877E-005 
 6.204900017079560E-005  6.282948051258878E-005  6.361977808853956E-005  6.442001638425217E-005 
 6.523032043858838E-005  6.605081686320523E-005  6.688163386233838E-005  6.772290125283420E-005 
 6.857475048443416E-005  6.943731466031372E-005  7.031072855788027E-005  7.119512864983228E-005 
 7.209065312548338E-005  7.299744191235497E-005  7.391563669803980E-005  7.484538095234125E-005 
 7.578681994969061E-005  7.674010079184652E-005  7.770537243088016E-005  7.868278569244896E-005 
 7.967249329936356E-005  8.067464989545114E-005  8.168941206971865E-005  8.271693838082054E-005 
 8.375738938183334E-005  8.481092764534279E-005  8.587771778884600E-005  8.695792650047321E-005 
 8.805172256503348E-005  8.915927689038716E-005  9.028076253415090E-005  9.141635473073825E-005 
 9.256623091874022E-005  9.373057076865078E-005  9.490955621094028E-005  9.610337146448272E-005 
 9.731220306534032E-005  9.853623989591000E-005  9.977567321443705E-005  1.010306966848990E-004 
 1.023015064072666E-004  1.035883009481443E-004  1.048912813717971E-004  1.062106512715673E-004 
 1.075466168016860E-004  1.088993867094852E-004  1.102691723680153E-004  1.116561878090721E-004 
 1.130606497566405E-004  1.144827776607571E-004  1.159227937318002E-004  1.173809229752106E-004 
 1.188573932266491E-004  1.203524351875967E-004  1.218662824614012E-004  1.233991715897792E-004 
 1.249513420897757E-004  1.265230364911892E-004  1.281145003744674E-004  1.297259824090803E-004 
 1.313577343923741E-004  1.330100112889161E-004  1.346830712703331E-004  1.363771757556506E-004 
 1.380925894521417E-004  1.398295803966862E-004  1.415884199976532E-004  1.433693830773087E-004 
 1.451727479147571E-004  1.469987962894237E-004  1.488478135250818E-004  1.507200885344364E-004 
 1.526159138642670E-004  1.545355857411382E-004  1.564794041176867E-004  1.584476727194884E-004 
 1.604406990925168E-004  1.624587946511976E-004  1.645022747270674E-004  1.665714586180460E-004 
 1.686666696383259E-004  1.707882351688918E-004  1.729364867086742E-004  1.751117599263467E-004 
 1.773143947127755E-004  1.795447352341270E-004  1.818031299856456E-004  1.840899318461057E-004 
 1.864054981329505E-004  1.887501906581237E-004  1.911243757846024E-004  1.935284244836431E-004 
 1.959627123927459E-004  1.984276198743492E-004  2.009235320752621E-004  2.034508389868440E-004 
 2.060099355059414E-004  2.086012214965922E-004  2.112251018525040E-004  2.138819865603214E-004 
 2.165722907636850E-004  2.192964348281002E-004  2.220548444066194E-004  2.248479505063510E-004 
 2.276761895558062E-004  2.305400034730902E-004  2.334398397349542E-004  2.363761514467138E-004 
 2.393493974130478E-004  2.423600422096879E-004  2.454085562560086E-004  2.484954158885319E-004 
 2.516211034353556E-004  2.547861072915180E-004  2.579909219953112E-004  2.612360483055529E-004 
 2.645219932798312E-004  2.678492703537336E-004  2.712183994210721E-004  2.746299069151186E-004 
 2.780843258908593E-004  2.815821961082875E-004  2.851240641167411E-004  2.887104833403020E-004 
 2.923420141642712E-004  2.960192240227280E-004  2.997426874871942E-004  3.035129863564114E-004 
 3.073307097472485E-004  3.111964541867531E-004  3.151108237053585E-004  3.190744299312657E-004 
 3.230878921860118E-004  3.271518375812390E-004  3.312669011166842E-004  3.354337257793965E-004 
 3.396529626442072E-004  3.439252709754603E-004  3.482513183300244E-004  3.526317806616007E-004 
 3.570673424263403E-004  3.615586966897933E-004  3.661065452352008E-004  3.707115986731506E-004 
 3.753745765526120E-004  3.800962074733652E-004  3.848772291998480E-004  3.897183887764319E-004 
 3.946204426441501E-004  3.995841567588933E-004  4.046103067110904E-004  4.096996778468971E-004 
 4.148530653909079E-004  4.200712745704107E-004  4.253551207412072E-004  4.307054295150113E-004 
 4.361230368884541E-004  4.416087893737098E-004  4.471635441307650E-004  4.527881691013521E-004 
 4.584835431445662E-004  4.642505561741886E-004  4.700901092977382E-004  4.760031149572710E-004 
 4.819904970719521E-004  4.880531911824180E-004  4.941921445969582E-004  5.004083165395330E-004 
 5.067026782996561E-004  5.130762133841578E-004  5.195299176708627E-004  5.260647995641955E-004 
 5.326818801527471E-004  5.393821933688225E-004  5.461667861499933E-004  5.530367186026850E-004 
 5.599930641678204E-004  5.670369097885466E-004  5.741693560800730E-004  5.813915175016433E-004 
 5.887045225306737E-004  5.961095138390782E-004  6.036076484718139E-004  6.112000980276730E-004 
 6.188880488423449E-004  6.266727021737862E-004  6.345552743899178E-004  6.425369971586851E-004 
 6.506191176405105E-004  6.588028986831617E-004  6.670896190190775E-004  6.754805734651693E-004 
 6.839770731251407E-004  6.925804455943503E-004  7.012920351672496E-004  7.101132030474339E-004 
 7.190453275603308E-004  7.280898043685678E-004  7.372480466900479E-004  7.465214855187658E-004 
 7.559115698484062E-004  7.654197668987493E-004  7.750475623449287E-004  7.847964605495713E-004 
 7.946679847978552E-004  8.046636775355288E-004  8.147851006099182E-004  8.250338355139708E-004 
 8.354114836333672E-004  8.459196664967386E-004  8.565600260290377E-004  8.673342248080886E-004 
 8.782439463243706E-004  8.892908952440673E-004  9.004767976754220E-004  9.118034014384480E-004 
 9.232724763380273E-004  9.348858144404465E-004  9.466452303534123E-004  9.585525615095851E-004 
 9.706096684536845E-004  9.828184351332006E-004  9.951807691927653E-004  1.007698602272228E-003 
 1.020373890308474E-003  1.033208613841048E-003  1.046204778321614E-003  1.059364414427312E-003 
 1.072689578378058E-003  1.086182352257830E-003  1.099844844339998E-003  1.113679189416745E-003 
 1.127687549132636E-003  1.141872112322378E-003  1.156235095352827E-003  1.170778742469303E-003 
 1.185505326146259E-003  1.200417147442353E-003  1.215516536360003E-003  1.230805852209447E-003 
 1.246287483977393E-003  1.261963850700302E-003  1.277837401842368E-003  1.293910617678252E-003 
 1.310186009680630E-003  1.326666120912615E-003  1.343353526425116E-003  1.360250833659195E-003 
 1.377360682853484E-003  1.394685747456732E-003  1.412228734545530E-003  1.429992385247303E-003 
 1.447979475168611E-003  1.466192814828853E-003  1.484635250099405E-003  1.503309662648297E-003 
 1.522218970390486E-003  1.541366127943777E-003  1.560754127090493E-003  1.580385997244946E-003 
 1.600264805926789E-003  1.620393659240322E-003  1.640775702359827E-003  1.661414120021011E-003 
 1.682312137018621E-003  1.703473018710330E-003  1.724900071526957E-003  1.746596643489095E-003 
 1.768566124730257E-003  1.790811948026585E-003  1.813337589333226E-003  1.836146568327465E-003 
 1.859242448958674E-003  1.882628840005191E-003  1.906309395638197E-003  1.930287815992688E-003 
 1.954567847745629E-003  1.979153284701379E-003  2.004047968384483E-003  2.029255788639914E-003 
 2.054780684240873E-003  2.080626643504229E-003  2.106797704913699E-003  2.133297957750876E-003 
 2.160131542734180E-003  2.187302652665857E-003  2.214815533087116E-003  2.242674482941496E-003 
 2.270883855246593E-003  2.299448057774222E-003  2.328371553739140E-003  2.357658862496440E-003 
 2.387314560247698E-003  2.417343280756025E-003  2.447749716070093E-003  2.478538617257281E-003 
 2.509714795146043E-003  2.541283121077600E-003  2.573248527667108E-003  2.605616009574378E-003 
 2.638390624284309E-003  2.671577492897134E-003  2.705181800928589E-003  2.739208799120176E-003 
 2.773663804259589E-003  2.808552200011479E-003  2.843879437758666E-003  2.879651037453919E-003 
 2.915872588482471E-003  2.952549750535363E-003  2.989688254493783E-003  3.027293903324537E-003 
 3.065372572986762E-003  3.103930213350067E-003  3.142972849124202E-003  3.182506580800439E-003 
 3.222537585604788E-003  3.263072118463190E-003  3.304116512978875E-003  3.345677182421990E-003 
 3.387760620731691E-003  3.430373403530834E-003  3.473522189153427E-003  3.517213719685012E-003 
 3.561454822016124E-003  3.606252408909012E-003  3.651613480077771E-003  3.697545123282056E-003 
 3.744054515434569E-003  3.791148923722456E-003  3.838835706742827E-003  3.887122315652549E-003 
 3.936016295332503E-003  3.985525285566490E-003  4.035657022234960E-003  4.086419338523764E-003 
 4.137820166148097E-003  4.189867536591850E-003  4.242569582362548E-003  4.295934538262064E-003 
 4.349970742673331E-003  4.404686638863225E-003  4.460090776301846E-003  4.516191811998389E-003 
 4.572998511853820E-003  4.630519752030568E-003  4.688764520339434E-003  4.747741917643969E-003 
 4.807461159282492E-003  4.867931576508009E-003  4.929162617946239E-003  4.991163851071983E-003 
 5.053944963704057E-003  5.117515765519042E-003  5.181886189584055E-003  5.247066293908822E-003 
 5.313066263017249E-003  5.379896409538791E-003  5.447567175819807E-003  5.516089135555207E-003 
 5.585472995440609E-003  5.655729596845281E-003  5.726869917506130E-003  5.798905073242998E-003 
 5.871846319695524E-003  5.945705054081867E-003  6.020492816979540E-003  6.096221294128654E-003 
 6.172902318257834E-003  6.250547870933110E-003  6.329170084430059E-003  6.408781243629495E-003 
 6.489393787937015E-003  6.571020313226674E-003  6.653673573809120E-003  6.737366484424478E-003 
 6.822112122260305E-003  6.907923728994930E-003  6.994814712866491E-003  7.082798650767999E-003 
 7.171889290368756E-003  7.262100552262453E-003  7.353446532142300E-003  7.445941503003498E-003 
 7.539599917373426E-003  7.634436409569879E-003  7.730465797987709E-003  7.827703087414229E-003 
 7.926163471373742E-003  8.025862334501562E-003  8.126815254947893E-003  8.229038006811944E-003 
 8.332546562606666E-003  8.437357095754494E-003  8.543485983114468E-003  8.650949807541164E-003 
 8.759765360475780E-003  8.869949644569853E-003  8.981519876341942E-003  9.094493488867752E-003 
 9.208888134504092E-003  9.324721687647074E-003  9.442012247525045E-003  9.560778141026615E-003 
 9.681037925564275E-003  9.802810391974028E-003  9.926114567451500E-003  1.005096971852497E-002 
 1.017739535406583E-002  1.030541122833682E-002  1.043503734407876E-002  1.056629395563597E-002 
 1.069920157212103E-002  1.083378096061944E-002  1.097005314943444E-002  1.110803943137278E-002 
 1.124776136707176E-002  1.138924078836809E-002  1.153249980170920E-002  1.167756079160737E-002 
 1.182444642413742E-002  1.197317965047826E-002  1.212378371049910E-002  1.227628213639075E-002 
 1.243069875634250E-002  1.258705769826537E-002  1.274538339356217E-002  1.290570058094490E-002 
 1.306803431030026E-002  1.323240994660371E-002  1.339885317388288E-002  1.356738999923064E-002 
 1.373804675686885E-002  1.391085011226309E-002  1.408582706628922E-002  1.426300495945230E-002 
 1.444241147615860E-002  1.462407464904136E-002  1.480802286334094E-002  1.499428486134008E-002 
 1.518288974685492E-002  1.537386698978253E-002  1.556724643070567E-002  1.576305828555541E-002 
 1.596133315033246E-002  1.616210200588784E-002  1.636539622276369E-002  1.657124756609500E-002 
 1.677968820057299E-002  1.699075069547085E-002  1.720446802973283E-002  1.742087359712722E-002 
 1.764000121146420E-002  1.786188511187933E-002  1.808655996818349E-002  1.831406088628006E-002 
 1.854442341365036E-002  1.877768354490797E-002  1.901387772742296E-002  1.925304286701690E-002 
 1.949521633372943E-002  1.974043596765742E-002  1.998874008486760E-002  2.024016748338344E-002 
 2.049475744924751E-002  2.075254976265992E-002  2.101358470419414E-002  2.127790306109086E-002 
 2.154554613363111E-002  2.181655574158949E-002  2.209097423076862E-002  2.236884447961575E-002 
 2.265020990592258E-002  2.293511447360943E-002  2.322360269959462E-002  2.351571966075042E-002 
 2.381151100094631E-002  2.411102293818100E-002  2.441430227180403E-002  2.472139638982832E-002 
 2.503235327633459E-002  2.534722151896900E-002  2.566605031653508E-002  2.598888948668110E-002 
 2.631578947368422E-002  2.664680135633249E-002  2.698197685590603E-002  2.732136834425856E-002 
 2.766502885200064E-002  2.801301207678579E-002  2.836537239170084E-002  2.872216485376190E-002 
 2.908344521251706E-002  2.944926991875739E-002  2.981969613333755E-002  3.019478173610718E-002 
 3.057458533495483E-002  3.095916627496555E-002  3.134858464769365E-002  3.174290130055214E-002 
 3.214217784632027E-002  3.254647667277066E-002  3.295586095241750E-002  3.337039465238736E-002 
 3.379014254441427E-002  3.421517021496030E-002  3.464554407546374E-002  3.508133137271587E-002 
 3.552260019936852E-002  3.596941950457360E-002  3.642185910475663E-002  3.687998969452563E-002 
 3.734388285771731E-002  3.781361107858223E-002  3.828924775311058E-002  3.877086720050042E-002 
 3.925854467477029E-002  3.975235637651772E-002  4.025237946482577E-002  4.075869206931931E-002 
 4.127137330237288E-002  4.179050327147221E-002  4.231616309173115E-002  4.284843489856607E-002 
 4.338740186052971E-002  4.393314819230641E-002  4.448575916787085E-002  4.504532113381224E-002 
 4.561192152282621E-002  4.618564886737630E-002  4.676659281352735E-002  4.735484413495288E-002 
 4.795049474711868E-002  4.855363772164475E-002  4.916436730084798E-002  4.978277891246764E-002 
 5.040896918457623E-002  5.104303596067776E-002  5.168507831499600E-002  5.233519656795507E-002 
 5.299349230185467E-002  5.366006837674253E-002  5.433502894648651E-002  5.501847947504886E-002 
 5.571052675296514E-002  5.641127891403053E-002  5.712084545219588E-002  5.783933723867639E-002 
 5.856686653927549E-002  5.930354703192656E-002  6.004949382445538E-002  6.080482347256592E-002 
 6.156965399805242E-002  6.234410490724055E-002  6.312829720966050E-002  6.392235343695497E-002 
 6.472639766202502E-002  6.554055551841663E-002  6.636495421995130E-002  6.719972258060337E-002 
 6.804499103462756E-002  6.890089165693952E-002  6.976755818375284E-002  7.064512603347557E-002 
 7.153373232786964E-002  7.243351591347647E-002  7.334461738331188E-002  7.426717909883426E-002 
 7.520134521218856E-002  7.614726168873058E-002  7.710507632983428E-002  7.807493879598601E-002 
 7.905700063016934E-002  8.005141528154382E-002  8.105833812942191E-002  8.207792650754719E-002 
 8.311033972867812E-002  8.415573910948097E-002  8.521428799573585E-002  8.628615178785987E-002 
 8.737149796675128E-002  8.847049611995869E-002  8.958331796817949E-002  9.071013739209148E-002 
 9.185113045952219E-002  9.300647545295976E-002  9.417635289741001E-002  9.536094558860378E-002 
 9.656043862155911E-002  9.777501941950278E-002  9.900487776315559E-002  1.002502058203859E-001 
 1.015111981762362E-001  1.027880518633277E-001  1.040809663926468E-001  1.053901437847191E-001 
 1.067157886011757E-001  1.080581079767162E-001  1.094173116514739E-001  1.107936120037885E-001 
 1.121872240833900E-001  1.135983656450012E-001  1.150272571823621E-001  1.164741219626825E-001 
 1.179391860615281E-001  1.194226783981449E-001  1.209248307712287E-001  1.224458778951440E-001 
 1.239860574365985E-001  1.255456100517791E-001  1.271247794239548E-001  1.287238123015528E-001 
 1.303429585367136E-001  1.319824711243306E-001  1.336426062415811E-001  1.353236232879549E-001 
 1.370257849257856E-001  1.387493571212919E-001  1.404946091861363E-001  1.422618138195045E-001 
 1.440512471507158E-001  1.458631887823691E-001  1.476979218340305E-001  1.495557329864723E-001 
 1.514369125264667E-001  1.533417543921441E-001  1.552705562189216E-001  1.572236193860086E-001 
 1.592012490634987E-001  1.612037542600523E-001  1.632314478711807E-001  1.652846467281360E-001 
 1.673636716474167E-001  1.694688474808964E-001  1.716005031665820E-001  1.737589717800113E-001 
 1.759445905862967E-001  1.781577010928231E-001  1.803986491026100E-001  1.826677847683431E-001 
 1.849654626470867E-001  1.872920417556842E-001  1.896478856268545E-001  1.920333623659957E-001 
 1.944488447087014E-001  1.968947100790022E-001  1.993713406483381E-001  2.018791233952746E-001 
 2.044184501659678E-001  2.069897177353920E-001  2.095933278693362E-001  2.122296873871809E-001 
 2.148992082254646E-001  2.176023075022493E-001  2.203394075822965E-001  2.231109361430626E-001 
 2.259173262415236E-001  2.287590163818423E-001  2.316364505838846E-001  2.345500784525985E-001 
 2.375003552482665E-001  2.404877419576402E-001  2.435127053659710E-001  2.465757181299457E-001 
 2.496772588515403E-001  2.528178121528029E-001  2.559978687515760E-001  2.592179255381734E-001 
 2.624784856530192E-001  2.657800585652647E-001  2.691231601523949E-001  2.725083127808341E-001 
 2.759360453875679E-001  2.794068935627897E-001  2.829213996335884E-001  2.864801127486880E-001 
 2.900835889642528E-001  2.937323913307730E-001  2.974270899810418E-001  3.011682622192401E-001 
 3.049564926111420E-001  3.087923730754530E-001  3.126765029763001E-001  3.166094892168826E-001 
 3.205919463343021E-001  3.246244965955858E-001  3.287077700949161E-001  3.328424048520850E-001 
 3.370290469121853E-001  3.412683504465563E-001  3.455609778550006E-001  3.499075998692839E-001 
 3.543088956579394E-001  3.587655529323885E-001  3.632782680543974E-001  3.678477461448853E-001 
 3.724747011941002E-001  3.771598561731825E-001  3.819039431471296E-001  3.867077033891829E-001 
 3.915718874966538E-001  3.964972555082051E-001  4.014845770226096E-001  4.065346313190007E-001 
 4.116482074786363E-001  4.168261045081954E-001  4.220691314646230E-001  4.273781075815485E-001 
 4.327538623972911E-001  4.381972358844777E-001  4.437090785812906E-001  4.492902517243648E-001 
 4.549416273833592E-001  4.606640885972182E-001  4.664585295121487E-001  4.723258555213329E-001 
 4.782669834063965E-001  4.842828414806594E-001  4.903743697341846E-001  4.965425199806551E-001 
 5.027882560060963E-001  5.091125537194690E-001  5.155164013051580E-001  5.220007993773772E-001 
 5.285667611365178E-001  5.352153125274637E-001  5.419474923998957E-001  5.487643526706162E-001 
 5.556669584879113E-001  5.626563883979829E-001  5.697337345134754E-001  5.769001026841177E-001 
 5.841566126695170E-001  5.915043983141217E-001  5.989446077243878E-001  6.064784034481734E-001 
 6.141069626563874E-001  6.218314773269271E-001  6.296531544309251E-001  6.375732161213418E-001 
 6.455928999239307E-001  6.537134589306013E-001  6.619361619952204E-001  6.702622939318709E-001 
 6.786931557156072E-001  6.872300646857363E-001  6.958743547516527E-001  7.046273766012667E-001 
 7.134904979120502E-001  7.224651035647398E-001  7.315525958597284E-001  7.407543947361751E-001 
 7.500719379938762E-001  7.595066815179220E-001  7.690600995061829E-001  7.787336846996571E-001 
 7.885289486157112E-001  7.984474217842614E-001  8.084906539869193E-001  8.186602144991494E-001 
 8.289576923354725E-001  8.393846964977504E-001  8.499428562265973E-001  8.606338212559520E-001 
 8.714592620708508E-001  8.824208701684461E-001  8.935203583223045E-001  9.047594608500316E-001 
 9.161399338842644E-001  9.276635556470674E-001  9.393321267277868E-001  9.511474703643934E-001 
 9.631114327283686E-001  9.752258832131735E-001  9.874927147263425E-001  9.999138439852575E-001 
 1.012491211816636E+000  1.025226783459789E+000  1.038122548873699E+000  1.051180523047946E+000 
 1.064402746317564E+000  1.077791284681837E+000  1.091348230127126E+000  1.105075700953737E+000 
 1.118975842106916E+000  1.133050825511998E+000  1.147302850413777E+000  1.161734143720138E+000 
 1.176346960350023E+000  1.191143583585758E+000  1.206126325429829E+000  1.221297526966131E+000 
 1.236659558725771E+000  1.252214821057466E+000  1.267965744502601E+000  1.283914790175012E+000 
 1.300064450145532E+000  1.316417247831389E+000  1.332975738390491E+000  1.349742509120677E+000 
 1.366720179863986E+000  1.383911403416012E+000  1.401318865940412E+000  1.418945287388620E+000 
 1.436793421924850E+000  1.454866058356433E+000  1.473166020569583E+000  1.491696167970627E+000 
 1.510459395932796E+000  1.529458636248633E+000  1.548696857588090E+000  1.568177065962394E+000 
 1.587902305193737E+000  1.607875657390878E+000  1.628100243430735E+000  1.648579223446023E+000 
 1.669315797319035E+000  1.690313205181629E+000  1.711574727921500E+000  1.733103687694836E+000 
 1.754903448445400E+000  1.776977416430162E+000  1.799329040751531E+000  1.821961813896280E+000 
 1.844879272281261E+000  1.868084996805972E+000  1.891582613412081E+000  1.915375793649992E+000 
 1.939468255252522E+000  1.963863762715815E+000  1.988566127887544E+000  2.013579210562523E+000 
 2.038906919085813E+000  2.064553210963399E+000  2.090522093480563E+000  2.116817624328034E+000 
 2.143443912236004E+000  2.170405117616133E+000  2.197705453211612E+000  2.225349184755423E+000 
 2.253340631636860E+000  2.281684167576445E+000  2.310384221309338E+000  2.339445277277324E+000 
 2.368871876329524E+000  2.398668616431907E+000  2.428840153385734E+000  2.459391201555044E+000 
 2.490326534603267E+000  2.521650986239131E+000  2.553369450971933E+000  2.585486884876318E+000 
 2.618008306366681E+000  2.650938796981293E+000  2.684283502176310E+000  2.718047632129760E+000 
 2.752236462555638E+000  2.786855335528261E+000  2.821909660316962E+000  2.857404914231308E+000 
 2.893346643476937E+000  2.929740464022167E+000  2.966592062475506E+000  3.003907196974185E+000 
 3.041691698083889E+000  3.079951469709787E+000  3.118692490019035E+000  3.157920812374881E+000 
 3.197642566282499E+000  3.237863958346754E+000  3.278591273241986E+000  3.319830874694004E+000 
 3.361589206474445E+000  3.403872793407604E+000  3.446688242389966E+000  3.490042243422543E+000 
 3.533941570656198E+000  3.578393083450131E+000  3.623403727443650E+000  3.668980535641455E+000 
 3.715130629512553E+000  3.761861220103000E+000  3.809179609162658E+000  3.857093190286084E+000 
 3.905609450067809E+000  3.954735969272131E+000  4.004480424017622E+000  4.054850586976547E+000 
 4.105854328589345E+000  4.157499618294411E+000  4.209794525773334E+000  4.262747222211798E+000 
 4.316365981576364E+000  4.370659181907266E+000  4.425635306627516E+000  4.481302945868451E+000 
 4.537670797811956E+000  4.594747670049586E+000  4.652542480958749E+000  4.711064261096232E+000 
 4.770322154609246E+000  4.830325420664210E+000  4.891083434893530E+000  4.952605690860539E+000 
 5.014901801542899E+000  5.077981500834647E+000  5.141854645067130E+000  5.206531214549094E+000 
 5.272021315126101E+000  5.338335179759607E+000  5.405483170125878E+000  5.473475778235017E+000 
 5.542323628070383E+000  5.612037477248580E+000  5.682628218700376E+000  5.754106882372741E+000 
 5.826484636952294E+000  5.899772791610450E+000  5.973982797770477E+000  6.049126250896816E+000 
 6.125214892306903E+000  6.202260611005753E+000  6.280275445543675E+000  6.359271585897283E+000 
 6.439261375374226E+000  6.520257312541851E+000  6.602272053180121E+000  6.685318412259133E+000 
 6.769409365941446E+000  6.854558053609659E+000  6.940777779919454E+000  7.028082016878478E+000 
 7.116484405951389E+000  7.205998760191330E+000  7.296639066398269E+000  7.388419487304461E+000 
 7.481354363787394E+000  7.575458217110608E+000  7.670745751192635E+000  7.767231854904541E+000 
 7.864931604396331E+000  7.963860265452627E+000  8.064033295878009E+000  8.165466347912274E+000 
 8.268175270676171E+000  8.372176112647844E+000  8.477485124170435E+000  8.584118759991263E+000 
 8.692093681832866E+000  8.801426760996456E+000  8.912135080998095E+000  9.024235940238009E+000 
 9.137746854703547E+000  9.252685560706020E+000  9.369070017652090E+000  9.486918410849940E+000 
 9.606249154350762E+000  9.727080893826024E+000  9.849432509480847E+000  9.973323119004101E+000 
 1.009877208055559E+001  1.022579899579076E+001  1.035442371292358E+001  1.048466632982779E+001 
 1.061654719717725E+001  1.075008692162580E+001  1.088530636902707E+001  1.102222666769484E+001 
 1.116086921170433E+001  1.130125566423511E+001  1.144340796095602E+001  1.158734831345260E+001 
 1.173309921269782E+001  1.188068343256620E+001  1.203012403339235E+001  1.218144436557420E+001 
 1.233466807322150E+001  1.248981909785033E+001  1.264692168212393E+001  1.280600037364073E+001 
 1.296708002876992E+001  1.313018581653532E+001  1.329534322254813E+001  1.346257805298906E+001 
 1.363191643864059E+001  1.380338483897001E+001  1.397701004626371E+001  1.415281918981360E+001 
 1.433083974015604E+001  1.451109951336419E+001  1.469362667539437E+001  1.487844974648698E+001 
 1.506559760562293E+001  1.525509949503596E+001  1.544698502478183E+001  1.564128417736495E+001 
 1.583802731242322E+001  1.603724517147178E+001  1.623896888270641E+001  1.644322996586741E+001 
 1.665006033716458E+001  1.685949231426423E+001  1.707155862133891E+001  1.728629239418052E+001 
 1.750372718537796E+001  1.772389696955972E+001  1.794683614870251E+001  1.817257955750668E+001 
 1.840116246883910E+001  1.863262059924474E+001  1.886699011452736E+001  1.910430763540056E+001 
 1.934461024320983E+001  1.958793548572650E+001  1.983432138301479E+001  2.008380643337241E+001 
 2.033642961934605E+001  2.059223041382252E+001  2.085124878619637E+001  2.111352520861525E+001 
 2.137910066230379E+001  2.164801664396690E+001  2.192031517227390E+001  2.219603879442378E+001 
 2.247523059279348E+001  2.275793419166952E+001  2.304419376406437E+001  2.333405403861864E+001 
 2.362756030658996E+001  2.392475842892982E+001  2.422569484344950E+001  2.453041657207601E+001 
 2.483897122819944E+001  2.515140702411257E+001  2.546777277854414E+001  2.578811792428695E+001 
 2.611249251592174E+001  2.644094723763845E+001  2.677353341115556E+001  2.711030300373934E+001 
 2.745130863632379E+001  2.779660359173277E+001  2.814624182300561E+001  2.850027796182727E+001 
 2.885876732706473E+001  2.922176593341066E+001  2.958933050013580E+001  2.996151845995158E+001 
 3.033838796798391E+001  3.071999791086017E+001  3.110640791591031E+001  3.149767836048377E+001 
 3.189387038138361E+001  3.229504588441913E+001  3.270126755407886E+001  3.311259886332517E+001 
 3.352910408351195E+001  3.395084829442730E+001  3.437789739446218E+001  3.481031811090733E+001 
 3.524817801037945E+001  3.569154550937864E+001  3.614048988497871E+001  3.659508128565171E+001 
 3.705539074222887E+001  3.752149017899927E+001  3.799345242494817E+001  3.847135122513679E+001 
 3.895526125222490E+001  3.944525811813877E+001  3.994141838588560E+001  4.044381958151664E+001 